<?xml version="1.0"?>
<VTKFile type="UnstructuredGrid"  version="0.1"  >
<UnstructuredGrid>
<Piece  NumberOfPoints="12162" NumberOfCells="22044">
<Points>
<DataArray  type="Float64"  NumberOfComponents="3"  format="ascii">94 80 0  94 79 0  95 80 0  95 79 0  96 80 0  96 79 0  97 80 0  97 79 0  98 80 0  98 79 0  99 80 0  99 79 0  100 80 0  100 79 0  101 80 0  101 79 0  102 80 0  102 79 0  103 80 0  103 79 0  104 80 0  104 79 0  105 80 0  105 79 0  106 80 0  106 79 0  107 80 0  107 79 0  108 80 0  108 79 0  109 80 0  109 79 0  110 80 0  110 79 0  111 80 0  111 79 0  112 80 0  112 79 0  113 80 0  113 79 0  114 80 0  114 79 0  115 80 0  115 79 0  116 80 0  116 79 0  117 80 0  117 79 0  118 80 0  118 79 0  119 80 0  119 79 0  120 80 0  120 79 0  121 80 0  121 79 0  122 80 0  122 79 0  123 80 0  123 79 0  124 80 0  124 79 0  125 80 0  125 79 0  126 80 0  126 79 0  127 80 0  127 79 0  128 80 0  128 79 0  129 80 0  129 79 0  130 80 0  130 79 0  131 80 0  131 79 0  132 80 0  132 79 0  133 80 0  133 79 0  134 80 0  134 79 0  135 80 0  135 79 0  136 80 0  136 79 0  137 80 0  137 79 0  138 80 0  138 79 0  139 80 0  139 79 0  140 80 0  140 79 0  141 80 0  141 79 0  142 80 0  142 79 0  143 80 0  143 79 0  144 80 0  144 79 0  145 80 0  145 79 0  146 80 0  146 79 0  147 80 0  147 79 0  148 80 0  148 79 0  149 80 0  149 79 0  150 80 0  150 79 0  151 80 0  151 79 0  152 80 0  152 79 0  153 80 0  153 79 0  154 80 0  154 79 0  155 80 0  155 79 0  156 80 0  156 79 0  157 80 0  157 79 0  158 80 0  158 79 0  159 80 0  159 79 0  160 80 0  160 79 0  161 80 0  161 79 0  162 80 0  162 79 0  163 80 0  163 79 0  164 80 0  164 79 0  165 80 0  165 79 0  166 80 0  166 79 0  167 80 0  167 79 0  168 80 0  168 79 0  169 80 0  169 79 0  170 80 0  170 79 0  171 80 0  171 79 0  172 80 0  172 79 0  173 80 0  173 79 0  174 80 0  174 79 0  175 80 0  175 79 0  176 80 0  176 79 0  177 80 0  177 79 0  178 80 0  178 79 0  179 80 0  179 79 0  180 80 0  180 79 0  181 80 0  181 79 0  182 80 0  182 79 0  183 80 0  183 79 0  184 80 0  184 79 0  185 80 0  185 79 0  186 80 0  186 79 0  187 80 0  187 79 0  188 80 0  188 79 0  189 80 0  189 79 0  190 80 0  190 79 0  191 80 0  191 79 0  192 80 0  192 79 0  193 80 0  193 79 0  194 80 0  194 79 0  195 80 0  195 79 0  196 80 0  196 79 0  197 80 0  197 79 0  198 80 0  198 79 0  199 80 0  199 79 0  200 80 0  200 79 0  201 80 0  201 79 0  202 80 0  202 79 0  203 80 0  203 79 0  204 80 0  204 79 0  205 80 0  205 79 0  206 80 0  206 79 0  207 80 0  207 79 0  208 80 0  208 79 0  209 80 0  209 79 0  210 80 0  210 79 0  211 80 0  211 79 0  212 80 0  212 79 0  213 80 0  213 79 0  214 80 0  214 79 0  215 80 0  215 79 0  216 80 0  216 79 0  217 80 0  217 79 0  218 80 0  218 79 0  219 80 0  219 79 0  220 80 0  220 79 0  221 80 0  221 79 0  222 80 0  222 79 0  223 80 0  223 79 0  224 80 0  224 79 0  225 80 0  225 79 0  226 80 0  226 79 0  91 79 0  91 78 0  92 79 0  92 78 0  93 79 0  93 78 0  94 78 0  95 78 0  96 78 0  97 78 0  98 78 0  99 78 0  100 78 0  101 78 0  102 78 0  103 78 0  104 78 0  105 78 0  106 78 0  107 78 0  108 78 0  109 78 0  110 78 0  111 78 0  112 78 0  113 78 0  114 78 0  115 78 0  116 78 0  117 78 0  118 78 0  119 78 0  120 78 0  121 78 0  122 78 0  123 78 0  124 78 0  125 78 0  126 78 0  127 78 0  128 78 0  129 78 0  130 78 0  131 78 0  132 78 0  133 78 0  134 78 0  135 78 0  136 78 0  137 78 0  138 78 0  139 78 0  140 78 0  141 78 0  142 78 0  143 78 0  144 78 0  145 78 0  146 78 0  147 78 0  148 78 0  149 78 0  150 78 0  151 78 0  152 78 0  153 78 0  154 78 0  155 78 0  156 78 0  157 78 0  158 78 0  159 78 0  160 78 0  161 78 0  162 78 0  163 78 0  164 78 0  165 78 0  166 78 0  167 78 0  168 78 0  169 78 0  170 78 0  171 78 0  172 78 0  173 78 0  174 78 0  175 78 0  176 78 0  177 78 0  178 78 0  179 78 0  180 78 0  181 78 0  182 78 0  183 78 0  184 78 0  185 78 0  186 78 0  187 78 0  188 78 0  189 78 0  190 78 0  191 78 0  192 78 0  193 78 0  194 78 0  195 78 0  196 78 0  197 78 0  198 78 0  199 78 0  200 78 0  201 78 0  202 78 0  203 78 0  204 78 0  205 78 0  206 78 0  207 78 0  208 78 0  209 78 0  210 78 0  211 78 0  212 78 0  213 78 0  214 78 0  215 78 0  216 78 0  217 78 0  218 78 0  219 78 0  220 78 0  221 78 0  222 78 0  223 78 0  224 78 0  225 78 0  226 78 0  227 79 0  227 78 0  228 79 0  228 78 0  229 79 0  229 78 0  88 78 0  88 77 0  89 78 0  89 77 0  90 78 0  90 77 0  91 77 0  92 77 0  93 77 0  94 77 0  95 77 0  96 77 0  97 77 0  98 77 0  99 77 0  100 77 0  101 77 0  102 77 0  103 77 0  104 77 0  105 77 0  106 77 0  107 77 0  108 77 0  109 77 0  110 77 0  111 77 0  112 77 0  113 77 0  114 77 0  115 77 0  116 77 0  117 77 0  118 77 0  119 77 0  120 77 0  121 77 0  122 77 0  123 77 0  124 77 0  125 77 0  126 77 0  127 77 0  128 77 0  129 77 0  130 77 0  131 77 0  132 77 0  133 77 0  134 77 0  135 77 0  136 77 0  137 77 0  138 77 0  139 77 0  140 77 0  141 77 0  142 77 0  143 77 0  144 77 0  145 77 0  146 77 0  147 77 0  148 77 0  149 77 0  150 77 0  151 77 0  152 77 0  153 77 0  154 77 0  155 77 0  156 77 0  157 77 0  158 77 0  159 77 0  160 77 0  161 77 0  162 77 0  163 77 0  164 77 0  165 77 0  166 77 0  167 77 0  168 77 0  169 77 0  170 77 0  171 77 0  172 77 0  173 77 0  174 77 0  175 77 0  176 77 0  177 77 0  178 77 0  179 77 0  180 77 0  181 77 0  182 77 0  183 77 0  184 77 0  185 77 0  186 77 0  187 77 0  188 77 0  189 77 0  190 77 0  191 77 0  192 77 0  193 77 0  194 77 0  195 77 0  196 77 0  197 77 0  198 77 0  199 77 0  200 77 0  201 77 0  202 77 0  203 77 0  204 77 0  205 77 0  206 77 0  207 77 0  208 77 0  209 77 0  210 77 0  211 77 0  212 77 0  213 77 0  214 77 0  215 77 0  216 77 0  217 77 0  218 77 0  219 77 0  220 77 0  221 77 0  222 77 0  223 77 0  224 77 0  225 77 0  226 77 0  227 77 0  228 77 0  229 77 0  230 78 0  230 77 0  231 78 0  231 77 0  232 78 0  232 77 0  84 77 0  84 76 0  85 77 0  85 76 0  86 77 0  86 76 0  87 77 0  87 76 0  88 76 0  89 76 0  90 76 0  91 76 0  92 76 0  93 76 0  94 76 0  95 76 0  96 76 0  97 76 0  98 76 0  99 76 0  100 76 0  101 76 0  102 76 0  103 76 0  104 76 0  105 76 0  106 76 0  107 76 0  108 76 0  109 76 0  110 76 0  111 76 0  112 76 0  113 76 0  114 76 0  115 76 0  116 76 0  117 76 0  118 76 0  119 76 0  120 76 0  121 76 0  122 76 0  123 76 0  124 76 0  125 76 0  126 76 0  127 76 0  128 76 0  129 76 0  130 76 0  131 76 0  132 76 0  133 76 0  134 76 0  135 76 0  136 76 0  137 76 0  138 76 0  139 76 0  140 76 0  141 76 0  142 76 0  143 76 0  144 76 0  145 76 0  146 76 0  147 76 0  148 76 0  149 76 0  150 76 0  151 76 0  152 76 0  153 76 0  154 76 0  155 76 0  156 76 0  157 76 0  158 76 0  159 76 0  160 76 0  161 76 0  162 76 0  163 76 0  164 76 0  165 76 0  166 76 0  167 76 0  168 76 0  169 76 0  170 76 0  171 76 0  172 76 0  173 76 0  174 76 0  175 76 0  176 76 0  177 76 0  178 76 0  179 76 0  180 76 0  181 76 0  182 76 0  183 76 0  184 76 0  185 76 0  186 76 0  187 76 0  188 76 0  189 76 0  190 76 0  191 76 0  192 76 0  193 76 0  194 76 0  195 76 0  196 76 0  197 76 0  198 76 0  199 76 0  200 76 0  201 76 0  202 76 0  203 76 0  204 76 0  205 76 0  206 76 0  207 76 0  208 76 0  209 76 0  210 76 0  211 76 0  212 76 0  213 76 0  214 76 0  215 76 0  216 76 0  217 76 0  218 76 0  219 76 0  220 76 0  221 76 0  222 76 0  223 76 0  224 76 0  225 76 0  226 76 0  227 76 0  228 76 0  229 76 0  230 76 0  231 76 0  232 76 0  233 77 0  233 76 0  234 77 0  234 76 0  235 77 0  235 76 0  236 77 0  236 76 0  80 76 0  80 75 0  81 76 0  81 75 0  82 76 0  82 75 0  83 76 0  83 75 0  84 75 0  85 75 0  86 75 0  87 75 0  88 75 0  89 75 0  90 75 0  91 75 0  92 75 0  93 75 0  94 75 0  95 75 0  96 75 0  97 75 0  98 75 0  99 75 0  100 75 0  101 75 0  102 75 0  103 75 0  104 75 0  105 75 0  106 75 0  107 75 0  108 75 0  109 75 0  110 75 0  111 75 0  112 75 0  113 75 0  114 75 0  115 75 0  116 75 0  117 75 0  118 75 0  119 75 0  120 75 0  121 75 0  122 75 0  123 75 0  124 75 0  125 75 0  126 75 0  127 75 0  128 75 0  129 75 0  130 75 0  131 75 0  132 75 0  133 75 0  134 75 0  135 75 0  136 75 0  137 75 0  138 75 0  139 75 0  140 75 0  141 75 0  142 75 0  143 75 0  144 75 0  145 75 0  146 75 0  147 75 0  148 75 0  149 75 0  150 75 0  151 75 0  152 75 0  153 75 0  154 75 0  155 75 0  156 75 0  157 75 0  158 75 0  159 75 0  160 75 0  161 75 0  162 75 0  163 75 0  164 75 0  165 75 0  166 75 0  167 75 0  168 75 0  169 75 0  170 75 0  171 75 0  172 75 0  173 75 0  174 75 0  175 75 0  176 75 0  177 75 0  178 75 0  179 75 0  180 75 0  181 75 0  182 75 0  183 75 0  184 75 0  185 75 0  186 75 0  187 75 0  188 75 0  189 75 0  190 75 0  191 75 0  192 75 0  193 75 0  194 75 0  195 75 0  196 75 0  197 75 0  198 75 0  199 75 0  200 75 0  201 75 0  202 75 0  203 75 0  204 75 0  205 75 0  206 75 0  207 75 0  208 75 0  209 75 0  210 75 0  211 75 0  212 75 0  213 75 0  214 75 0  215 75 0  216 75 0  217 75 0  218 75 0  219 75 0  220 75 0  221 75 0  222 75 0  223 75 0  224 75 0  225 75 0  226 75 0  227 75 0  228 75 0  229 75 0  230 75 0  231 75 0  232 75 0  233 75 0  234 75 0  235 75 0  236 75 0  237 76 0  237 75 0  238 76 0  238 75 0  239 76 0  239 75 0  240 76 0  240 75 0  75 75 0  75 74 0  76 75 0  76 74 0  77 75 0  77 74 0  78 75 0  78 74 0  79 75 0  79 74 0  80 74 0  81 74 0  82 74 0  83 74 0  84 74 0  85 74 0  86 74 0  87 74 0  88 74 0  89 74 0  90 74 0  91 74 0  92 74 0  93 74 0  94 74 0  95 74 0  96 74 0  97 74 0  98 74 0  99 74 0  100 74 0  101 74 0  102 74 0  103 74 0  104 74 0  105 74 0  106 74 0  107 74 0  108 74 0  109 74 0  110 74 0  111 74 0  112 74 0  113 74 0  114 74 0  115 74 0  116 74 0  117 74 0  118 74 0  119 74 0  120 74 0  121 74 0  122 74 0  123 74 0  124 74 0  125 74 0  126 74 0  127 74 0  128 74 0  129 74 0  130 74 0  131 74 0  132 74 0  133 74 0  134 74 0  135 74 0  136 74 0  137 74 0  138 74 0  139 74 0  140 74 0  141 74 0  142 74 0  143 74 0  144 74 0  145 74 0  146 74 0  147 74 0  148 74 0  149 74 0  150 74 0  151 74 0  152 74 0  153 74 0  154 74 0  155 74 0  156 74 0  157 74 0  158 74 0  159 74 0  160 74 0  161 74 0  162 74 0  163 74 0  164 74 0  165 74 0  166 74 0  1
[...]
<PointData  Scalars="f_49"> 
<DataArray  type="Float64"  Name="f_49"  format="ascii">6.2088804288307931e-02  1.2920199383795447e-01  5.9843390856562879e-02  9.6165921310724031e-02  8.4621184877085504e-02  1.0716128823941407e-01  1.0209359319763098e-01  1.1280051500360064e-01  1.1537817585450263e-01  1.2016048780604596e-01  1.2548049874735914e-01  1.2669339369698757e-01  1.3299213029375734e-01  1.3219268456963801e-01  1.3840762554019878e-01  1.3656754278720704e-01  1.4211261475510742e-01  1.3986671721202190e-01  1.4445948998574920e-01  1.4223053277213726e-01  1.4578932516784099e-01  1.4384833812625977e-01  1.4642975105296496e-01  1.4493252368675411e-01  1.4667502291385628e-01  1.4568990536006843e-01  1.4676115968371067e-01  1.4629142155091340e-01  1.4685678770618141e-01  1.4686170211316366e-01  1.4707487359378515e-01  1.4748868693295483e-01  1.4749035032251423e-01  1.4823640051068535e-01  1.4816067388762574e-01  1.4916114676111408e-01  1.4912265073762948e-01  1.5030723566806206e-01  1.5036735806391921e-01  1.5167448304110492e-01  1.5183125888570920e-01  1.5321246872984390e-01  1.5341588961910993e-01  1.5484243659672461e-01  1.5502103747485771e-01  1.5648685683018063e-01  1.5657939524483092e-01  1.5809851659740001e-01  1.5807116582157252e-01  1.5966900985815416e-01  1.5953897447827606e-01  1.6124308222627870e-01  1.6105360500147450e-01  1.6289152307139079e-01  1.6264384875294133e-01  1.6463053711256273e-01  1.6427659703862676e-01  1.6641534950475764e-01  1.6589068234664320e-01  1.6817972786618898e-01  1.6746088421405966e-01  1.6989665133124310e-01  1.6902736384940395e-01  1.7159749432098670e-01  1.7074300601658848e-01  1.7342284082283335e-01  1.7279267093562603e-01  1.7556204254077967e-01  1.7522711670322708e-01  1.7805519377567161e-01  1.7791446381603102e-01  1.8077741503417802e-01  1.8062068557899974e-01  1.8352566559215361e-01  1.8312784272673729e-01  1.8611111368930164e-01  1.8536959377717796e-01  1.8846691606849486e-01  1.8746842272178116e-01  1.9066091261646359e-01  1.8985964294999713e-01  1.9304140658075758e-01  1.9311928019263419e-01  1.9611967490394783e-01  1.9760132876150527e-01  2.0012824468257420e-01  2.0333944818730387e-01  2.0503878891867366e-01  2.1013832557121392e-01  2.1068811648364622e-01  2.1769127074744332e-01  2.1687357346667391e-01  2.2564257350113875e-01  2.2337925257322364e-01  2.3364073331756982e-01  2.3001049277891006e-01  2.4131048278151521e-01  2.3654159332307434e-01  2.4834474021535391e-01  2.4278437355367813e-01  2.5466810030832576e-01  2.4877921708354303e-01  2.6045246542319872e-01  2.5476475615031074e-01  2.6602217791269239e-01  2.6109106509763069e-01  2.7175364314352501e-01  2.6815752267751414e-01  2.7802329237010892e-01  2.7638574622190420e-01  2.8523106194399367e-01  2.8620528050533545e-01  2.9376451206156512e-01  2.9804404786421246e-01  3.0469980582261813e-01  3.1212878742472960e-01  3.1687782457389235e-01  3.2738920104540997e-01  3.2988237031608497e-01  3.4446796288347059e-01  3.2425143623199648e-01  3.2671582770750179e-01  3.4921326055068641e-01  2.9506692399029366e-01  3.7909062447855135e-01  2.9365904861260267e-01  3.8722195083375421e-01  3.0805733468148611e-01  3.9194032279433633e-01  3.1735853888164345e-01  3.9380309212083908e-01  3.2218021314970796e-01  3.9381889281994997e-01  3.2341778853246966e-01  3.9202860713351051e-01  3.2124464498131933e-01  3.8800671770357903e-01  3.1577718499236973e-01  3.8123055879202095e-01  3.0712822388258926e-01  3.6449549215370414e-01  2.9850759417871536e-01  3.6582883554945667e-01  2.9967324862294953e-01  3.8245992957965153e-01  3.3200827582730141e-01  3.5620281628013040e-01  3.5352890227638351e-01  3.0755315750109408e-01  3.3196246105367305e-01  2.9719925564801447e-01  3.1292020888785016e-01  2.8859735701837341e-01  2.9660773492746101e-01  2.8204388207518905e-01  2.8505669717563054e-01  2.7634079600412870e-01  2.7578472167940621e-01  2.7103090632769561e-01  2.6815639004053465e-01  2.6581335014050600e-01  2.6155033395572264e-01  2.6038033387320891e-01  2.5548503357445040e-01  2.5445010906005616e-01  2.4956564854429372e-01  2.4781815266167581e-01  2.4349019003976385e-01  2.4045926904658516e-01  2.3711263809131217e-01  2.3256830092051217e-01  2.3049413446066813e-01  2.2446974716624921e-01  2.2379620489200022e-01  2.1652176633541054e-01  2.1721056523720830e-01  2.0907350309665962e-01  2.1095024943114615e-01  2.0244226469978316e-01  2.0524190091591762e-01  1.9687651587473373e-01  2.0029504959325109e-01  1.9249883719831576e-01  1.9624466646544866e-01  1.8923924807263287e-01  1.9307784519564056e-01  1.8675247430054495e-01  1.9052678963538416e-01  1.8454133464461248e-01  1.8816611598982322e-01  1.8222512871085844e-01  1.8570469017423319e-01  1.7967475098964622e-01  1.8306653533023678e-01  1.7698197197052287e-01  1.8033958592372176e-01  1.7435220335651772e-01  1.7768975991308833e-01  1.7198900638986567e-01  1.7527727376374369e-01  1.7000224836494060e-01  1.7318818844155565e-01  1.6834264854639175e-01  1.7137229239312624e-01  1.6684423897412959e-01  1.6967680043043409e-01  1.6534933747457681e-01  1.6797734857468138e-01  1.6378941712290418e-01  1.6623472217227639e-01  1.6218544334946841e-01  1.6447981988523083e-01  1.6060070200661455e-01  1.6277001863049823e-01  1.5908468320522501e-01  1.6114499517609357e-01  1.5762960166034312e-01  1.5959052496186218e-01  1.5617948891578651e-01  1.5804746475383935e-01  1.5468497705992412e-01  1.5646868947795245e-01  1.5314800912368834e-01  1.5485423427464989e-01  1.5162983391338686e-01  1.5325221227181315e-01  1.5022964110042802e-01  1.5173925644457420e-01  1.4905040422956875e-01  1.5039363580628076e-01  1.4816525462265295e-01  1.4926942696104206e-01  1.4759104174239360e-01  1.4837458501317558e-01  1.4728519252691366e-01  1.4766920969212255e-01  1.4716457552577919e-01  1.4708696693297557e-01  1.4712198236685675e-01  1.4654907851697851e-01  1.4702577771728695e-01  1.4596157017330463e-01  1.4670654273691805e-01  1.4520388124639150e-01  1.4594074155808456e-01  1.4411856517238458e-01  1.4444652431957919e-01  1.4251518508600161e-01  1.4189778697517469e-01  1.4019668597924256e-01  1.3794593938059468e-01  1.3699890828665895e-01  1.3223051798133573e-01  1.3283752762218851e-01  1.2437525370259450e-01  1.2777036892772048e-01  1.1408564823921365e-01  1.2201525418467658e-01  1.0049446089733724e-01  1.1613196266919795e-01  8.7455544585970824e-02  1.1031829371524345e-01  6.0783747738732685e-02  9.8575523293443656e-02  1.4844710543054215e-02  1.0615945745097029e-01  7.7458380877677702e-02  1.4916071605207865e-01  8.0261100725486687e-02  1.1299228148374890e-01  1.3197086353773216e-01  1.2156821596013147e-01  1.2917687901049660e-01  1.2051106574985941e-01  1.2939247897756956e-01  1.2819192011946778e-01  1.3072900308952978e-01  1.3325724070112557e-01  1.3598297026212114e-01  1.3844805807591787e-01  1.4049649331960931e-01  1.4209823572429783e-01  1.4331848549121845e-01  1.4428013792742478e-01  1.4512047056443625e-01  1.4594007906208520e-01  1.4679279214590421e-01  1.4771082475832015e-01  1.4872544572813035e-01  1.4989688383709771e-01  1.5129739096337391e-01  1.5293029043135831e-01  1.5471978352209895e-01  1.5655431974590059e-01  1.5833377029156670e-01  1.6001400349151124e-01  1.6160698548145414e-01  1.6321969488211088e-01  1.6500041150941505e-01  1.6695970141518005e-01  1.6898333553416792e-01  1.7092090633590107e-01  1.7270140173164017e-01  1.7434494038601658e-01  1.7610475455250424e-01  1.7834960167652586e-01  1.8112831894338099e-01  1.8420564074245621e-01  1.8724617358354978e-01  1.8992977648395051e-01  1.9212123937291201e-01  1.9382449895367709e-01  1.9557116603227889e-01  1.9818526248572099e-01  2.0183041170749944e-01  2.0627720457526036e-01  2.1123459317160187e-01  2.1650378483221344e-01  2.2194466217931016e-01  2.2749276232311305e-01  2.3294427316888555e-01  2.3809300919001403e-01  2.4313242277606370e-01  2.4849083569118752e-01  2.5463168128606223e-01  2.6195756076427840e-01  2.7077222789012390e-01  2.8124053610659627e-01  2.9327376346453105e-01  3.0624490573622010e-01  3.1845121351783695e-01  3.2522605363374024e-01  3.1336760415654652e-01  2.7854639179974089e-01  2.5249722898510357e-01  2.5288273065274303e-01  2.5686560950847359e-01  2.6065000827762014e-01  2.6212333035069041e-01  2.6116820073512653e-01  2.5848653702589414e-01  2.5612981158232662e-01  2.5842153678529728e-01  2.7463104802925098e-01  3.0733431277679457e-01  3.3046396282769469e-01  3.2640942316634552e-01  3.1090206205009185e-01  2.9491905219936143e-01  2.8178398268684091e-01  2.7096237565271186e-01  2.6232479409566645e-01  2.5529323104818841e-01  2.4934653075306917e-01  2.4396519908987899e-01  2.3869313554044835e-01  2.3325660835593712e-01  2.2769410026267733e-01  2.2211650819157031e-01  2.1660366181150773e-01  2.1125879815044549e-01  2.0627039921308307e-01  2.0190861441490451e-01  1.9842360997218278e-01  1.9589570576520535e-01  1.9395690741776794e-01  1.9194529264019966e-01  1.8951122726271413e-01  1.8667529918174067e-01  1.8366163150700049e-01  1.8075235645138718e-01  1.7818735307417793e-01  1.7608313642585130e-01  1.7431909566518031e-01  1.7260824814062475e-01  1.7077191660321284e-01  1.6880739057174632e-01  1.6681902452869893e-01  1.6492852888328757e-01  1.6320580583458349e-01  1.6160879121359761e-01  1.6000911099399720e-01  1.5831328486767296e-01  1.5651580128115236e-01  1.5468435178296291e-01  1.5292162357010755e-01  1.5132686347345978e-01  1.4996412768458756e-01  1.4883244391514167e-01  1.4787265686593570e-01  1.4701933149090241e-01  1.4622593141671844e-01  1.4545311147856296e-01  1.4464439745277502e-01  1.4370653707349643e-01  1.4251620497738063e-01  1.4096491530758182e-01  1.3901261720535577e-01  1.3673055816531651e-01  1.3431404083330456e-01  1.3205717550818055e-01  1.3014644529560054e-01  1.2811038392150612e-01  1.2506749838391104e-01  1.1635069523616133e-01  1.4109753609792289e-01  1.4016015012718908e-01  7.9496279766065756e-02  1.1519228720407720e-01  2.5447286239303302e-02  1.2573680243017241e-01  8.8048705190475515e-02  1.6768543490585902e-01  9.0221337002659371e-02  1.2533902400073027e-01  1.5158538179359371e-01  1.3435433720197576e-01  1.4113068666044915e-01  1.2776487726511201e-01  1.3690690484097284e-01  1.2796049533604795e-01  1.3169849509569817e-01  1.3930707125049863e-01  1.3867564758534326e-01  1.3976978349250560e-01  1.4037862016123337e-01  1.4131848993019458e-01  1.4219768912544592e-01  1.4294684317111445e-01  1.4353027211920702e-01  1.4400326670629726e-01  1.4448132970494054e-01  1.4508834621590894e-01  1.4587187657892345e-01  1.4680421101743352e-01  1.4784601159881028e-01  1.4898512065188702e-01  1.5030384463978497e-01  1.5193716830997897e-01  1.5389139697231100e-01  1.5603243199377098e-01  1.5817124936553092e-01  1.6014217263584044e-01  1.6188215000151374e-01  1.6341895348246363e-01  1.6498221090549986e-01  1.6688526507455781e-01  1.6913409844989596e-01  1.7149067728147024e-01  1.7363827414380015e-01  1.7541082997607105e-01  1.7678715966005279e-01  1.7825403979477497e-01  1.8054619128342841e-01  1.8372739829797574e-01  1.8738261050692270e-01  1.9094156483857658e-01  1.9381910434936608e-01  1.9574326743898157e-01  1.9654328552628123e-01  1.9715665633183663e-01  1.9910020515090834e-01  2.0239717953627398e-01  2.0647784484105211e-01  2.1085407281563981e-01  2.1533950786502770e-01  2.1986478007361412e-01  2.2450590485421637e-01  2.2892627437349772e-01  2.3273103455426183e-01  2.3631169938571328e-01  2.4036437117293730e-01  2.4550672040123447e-01  2.5213950396292262e-01  2.6041270805763328e-01  2.7019246195444430e-01  2.8096403918735402e-01  2.9161915255768506e-01  2.9993137334072956e-01  3.0199468634491139e-01  2.8928347586062841e-01  2.6016284529961647e-01  2.3340433081601247e-01  2.2065319384250140e-01  2.1565396110966881e-01  2.1512535703991109e-01  2.1554467697684387e-01  2.1630317388095766e-01  2.1813424565861500e-01  2.2320282935154095e-01  2.3493309790097194e-01  2.5647535210576633e-01  2.8415811770107352e-01  3.0200476187371617e-01  3.0358743081404499e-01  2.9587914361106549e-01  2.8387683502222161e-01  2.7185783144227571e-01  2.6148009341045503e-01  2.5320508067513203e-01  2.4683178058568453e-01  2.4189939511989661e-01  2.3776708506787533e-01  2.3375654175961588e-01  2.2941354872401490e-01  2.2488348040954903e-01  2.2033633687670170e-01  2.1574474318477324e-01  2.1108426353049956e-01  2.0654625727098941e-01  2.0254668540988652e-01  1.9957260674510263e-01  1.9793237515876758e-01  1.9704929555131662e-01  1.9572728885385426e-01  1.9345034432861061e-01  1.9035073411812076e-01  1.8686125887180402e-01  1.8349121782231320e-01  1.8066917292111531e-01  1.7860903806901487e-01  1.7706792584298528e-01  1.7548437865683686e-01  1.7356024559486566e-01  1.7134146519627694e-01  1.6905618185853871e-01  1.6694876024205471e-01  1.6515799915542631e-01  1.6359533580829624e-01  1.6199841190560901e-01  1.6018629608501950e-01  1.5814540658772125e-01  1.5598786947717130e-01  1.5388006627528542e-01  1.5197979041950538e-01  1.5038794663451208e-01  1.4909581552576040e-01  1.4800533001564745e-01  1.4704294586111516e-01  1.4620355401241791e-01  1.4551877434434318e-01  1.4500413772520060e-01  1.4461249106086052e-01  1.4423200620400450e-01  1.4375086259667519e-01  1.4311884336874106e-01  1.4236949238535376e-01  1.4158756652557661e-01  1.4080980669940193e-01  1.3983691704520246e-01  1.3810724530564927e-01  1.3402603701578081e-01  1.3004042307120064e-01  1.3070990104203717e-01  1.3464603855389026e-01  1.2853592858535479e-01  1.6166752938335530e-01  1.5671411753055525e-01  9.0508913873082616e-02  1.2749057017626170e-01  2.8369102474716325e-02  1.4056691227454216e-01  8.2544234469292280e-02  1.6658594050663023e-01  8.1461112194690211e-02  1.2317023540422428e-01  1.2143356622717467e-01  1.3799039302699045e-01  1.7705316682030253e-01  1.3961924308272897e-01  1.5056017385687581e-01  1.3484028798613859e-01  1.4478333923737555e-01  1.3266341357470179e-01  1.3307731713251958e-01  1.3954492046200245e-01  1.3609491895069833e-01  1.3991947401602600e-01  1.4490709805120958e-01  1.4644511267587432e-01  1.4737190374347095e-01  1.4735608905888842e-01  1.4722981044365410e-01  1.4687473383481436e-01  1.4638697347446375e-01  1.4583314693277535e-01  1.4535364608697593e-01  1.4514065899311002e-01  1.4536385354424622e-01  1.4601648913563087e-01  1.4695342404188147e-01  1.4803346200618842e-01  1.4918191206373288e-01  1.5054682752427750e-01  1.5239854498273600e-01  1.5474319501212352e-01  1.5734506760998893e-01  1.5988926042265839e-01  1.6209060111065923e-01  1.6384201247989308e-01  1.6517060486086399e-01  1.6653461459641425e-01  1.6856580954737679e-01  1.7124403682190356e-01  1.7411425462558353e-01  1.7657514838943109e-01  1.7831386194099202e-01  1.7916043323419864e-01  1.8002355526980721e-01  1.8231784020134700e-01  1.8604007764123356e-01  1.9048085672799372e-01  1.9481401197794013e-01  1.9812537897747540e-01  1.9986619588607682e-01  1.9932644884876199e-01  1.9832984916935587e-01  1.9969685263692816e-01  2.0283918319816172e-01  2.0660231509488405e-01  2.1027891683620167e-01  2.1374903485850802e-01  2.1705416109434372e-01  2.2062409416881446e-01  2.2378065484489448e-01  2.2568414079031174e-01  2.2715435953628171e-01  2.2932114307490445e-01  2.3300375434026110e-01  2.3858806791563891e-01  2.4604233240757273e-01  2.5494397594643037e-01  2.6444125502860999e-01  2.7311319435541104e-01  2.7871979371384048e-01  2.7781924811411318e-01  2.6560268375090501e-01  2.4193454390424951e-01  2.1681286366060973e-01  1.9813885660400096e-01  1.8640593557715851e-01  1.8098759265127656e-01  1.7981421767911290e-01  1.8214104692544153e-01  1.8823430519842183e-01  1.9923662906706335e-01  2.1623592294146407e-01  2.3874985910453805e-01  2.6185647954373842e-01  2.7650778123366665e-01  2.8005982572448057e-01  2.7585342163902782e-01  2.6695334870666410e-01  2.5676946730267586e-01  2.4742151844243959e-01  2.4000205011462689e-01  2.3482409275238764e-01  2.3157572700298279e-01  2.2941912712274948e-01  2.2722845811261552e-01  2.2426484609134190e-01  2.2102905633978390e-01  2.1783034559371303e-01  2.1448557511259067e-01  2.1076618472800857e-01  2.0669152754207321e-01  2.0279262726468225e-01  2.0013283845616200e-01  1.9959574893720547e-01  2.0020252903162650e-01  1.9980270300641678e-01  1.9768224257264852e-01  1.9415901894318072e-01  1.8997015338948653e-01  1.8593256979551390e-01  1.8275713167616092e-01  1.8086454272973307e-01  1.7980021969268389e-01  1.7848891855373469e-01  1.7646147015018526e-01  1.7387054027738919e-01  1.7115760491686033e-01  1.6877166204575597e-01  1.6696950139921307e-01  1.6557326768050254e-01  1.6407410460843558e-01  1.6215859579331421e-01  1.5982017746723107e-01  1.5725174262944311e-01  1.5472313017788872e-01  1.5248668646266733e-01  1.5070212998366489e-01  1.4933340127578518e-01  1.4819506834851315e-01  1.4719156651686696e-01  1.4638037684330504e-01  1.4589430352094374e-01  1.4583735500831629e-01  1.4618702765993283e-01  1.4677465054075445e-01  1.4739471285650274e-01  1.4789189598203584e-01  1.4818256197737642e-01  1.4820880563294908e-01  1.4785317943229229e-01  1.4685872465932825e-01  1.4477184673210314e-01  1.4135600333376402e-01  1.3748907988209277e-01  1.3717027437185814e-01  1.3648357073197720e-01  1.3509496969863191e-01  1.3807906286810012e-01  1.4283239358808764e-01  1.3441860469099551e-01  1.8108378372230288e-01  1.6569703705261993e-01  1.2358601070411673e-01  1.4233923324799222e-01  8.3791863840540201e-02  1.2829865120615441e-01  2.1947305414696514e-02  1.3673151274374748e-01  8.7643965995514120e-02  1.7698908736713720e-01  8.4605355253375356e-02  1.2850421792096722e-01  1.2441004621426152e-01  1.4215567580164193e-01  1.7702676235768408e-01  1.4267408922052174e-01  1.5407368138669555e-01  1.4015651293293543e-01  1.4970820026385234e-01  1.4397399618555035e-01  1.3535287976773736e-01  1.3544479570589421e-01  1.4212385066591257e-01  1.3615581129028198e-01  1.3763360565035773e-01  1.4131488313773902e-01  1.4191306388645863e-01  1.4528831101356976e-01  1.4938460828529126e-01  1.5201018137237554e-01  1.5341434178862079e-01  1.5358797456713041e-01  1.5298943567436715e-01  1.5177631516884041e-01  1.5018922636158244e-01  1.4847154785324596e-01  1.4692490832539248e-01  1.4591842327897489e-01  1.4574813053090210e-01  1.4632573560897372e-01  1.4730740037699339e-01  1.4839480426397378e-01  1.4941335978027814e-01  1.5066913753630704e-01  1.5270600485197328e-01  1.5551485321434286e-01  1.5870314828616175e-01  1.6177343825744234e-01  1.6424744501498073e-01  1.6594718127087160e-01  1.6681247518877490e-01  1.6770496502896182e-01  1.6986878903020289e-01  1.7317055334049913e-01  1.7683698105568144e-01  1.7987125231691597e-01  1.8166896192390830e-01  1.8156559035543349e-01  1.8133765936640306e-01  1.8363970367237428e-01  1.8801849354850866e-01  1.9331339151362181e-01  1.9867789250896761e-01  2.0279876718778808e-01  2.0462909077000671e-01  2.0238491225369112e-01  1.9942382529821909e-01  2.0064309848968948e-01  2.0395954865441437e-01  2.0741122903761502e-01  2.0998727899373604e-01  2.1170760289964236e-01  2.1301825404081104e-01  2.1522521431300987e-01  2.1672131994575844e-01  2.1586647133155484e-01  2.1449345312644616e-01  2.1439519201479657e-01  2.1661276776069799e-01  2.2140019256668717e-01  2.2844330069576699e-01  2.3697282484380264e-01  2.4581646337530805e-01  2.5335193700178943e-01  2.5740247457842080e-01  2.5521031410774786e-01  2.4392807426964827e-01  2.2384941489933155e-01  2.0078787169777793e-01  1.8016814574046144e-01  1.6441208867800969e-01  1.5511119891714217e-01  1.5234651330334761e-01  1.5582675804949250e-01  1.6522269714591320e-01  1.8017481265389745e-01  1.9972809819588638e-01  2.2159315455486975e-01  2.4131867159423814e-01  2.5365126958626005e-01  2.5740600511275963e-01  2.5457259721068248e-01  2.4734641892451534e-01  2.3827423760355429e-01  2.2947649744121718e-01  2.2253206173482803e-01  2.1842520878699154e-01  2.1722593955450389e-01  2.1776025113118574e-01  2.1820674395864348e-01  2.1714518628081392e-01  2.1567060417234052e-01  2.1444096049783146e-01  2.1314066957426017e-01  2.1101690259280892e