<?xml version="1.0"?>
<VTKFile type="UnstructuredGrid"  version="0.1"  >
<UnstructuredGrid>
<Piece  NumberOfPoints="12162" NumberOfCells="22044">
<Points>
<DataArray  type="Float64"  NumberOfComponents="3"  format="ascii">94 80 0  94 79 0  95 80 0  95 79 0  96 80 0  96 79 0  97 80 0  97 79 0  98 80 0  98 79 0  99 80 0  99 79 0  100 80 0  100 79 0  101 80 0  101 79 0  102 80 0  102 79 0  103 80 0  103 79 0  104 80 0  104 79 0  105 80 0  105 79 0  106 80 0  106 79 0  107 80 0  107 79 0  108 80 0  108 79 0  109 80 0  109 79 0  110 80 0  110 79 0  111 80 0  111 79 0  112 80 0  112 79 0  113 80 0  113 79 0  114 80 0  114 79 0  115 80 0  115 79 0  116 80 0  116 79 0  117 80 0  117 79 0  118 80 0  118 79 0  119 80 0  119 79 0  120 80 0  120 79 0  121 80 0  121 79 0  122 80 0  122 79 0  123 80 0  123 79 0  124 80 0  124 79 0  125 80 0  125 79 0  126 80 0  126 79 0  127 80 0  127 79 0  128 80 0  128 79 0  129 80 0  129 79 0  130 80 0  130 79 0  131 80 0  131 79 0  132 80 0  132 79 0  133 80 0  133 79 0  134 80 0  134 79 0  135 80 0  135 79 0  136 80 0  136 79 0  137 80 0  137 79 0  138 80 0  138 79 0  139 80 0  139 79 0  140 80 0  140 79 0  141 80 0  141 79 0  142 80 0  142 79 0  143 80 0  143 79 0  144 80 0  144 79 0  145 80 0  145 79 0  146 80 0  146 79 0  147 80 0  147 79 0  148 80 0  148 79 0  149 80 0  149 79 0  150 80 0  150 79 0  151 80 0  151 79 0  152 80 0  152 79 0  153 80 0  153 79 0  154 80 0  154 79 0  155 80 0  155 79 0  156 80 0  156 79 0  157 80 0  157 79 0  158 80 0  158 79 0  159 80 0  159 79 0  160 80 0  160 79 0  161 80 0  161 79 0  162 80 0  162 79 0  163 80 0  163 79 0  164 80 0  164 79 0  165 80 0  165 79 0  166 80 0  166 79 0  167 80 0  167 79 0  168 80 0  168 79 0  169 80 0  169 79 0  170 80 0  170 79 0  171 80 0  171 79 0  172 80 0  172 79 0  173 80 0  173 79 0  174 80 0  174 79 0  175 80 0  175 79 0  176 80 0  176 79 0  177 80 0  177 79 0  178 80 0  178 79 0  179 80 0  179 79 0  180 80 0  180 79 0  181 80 0  181 79 0  182 80 0  182 79 0  183 80 0  183 79 0  184 80 0  184 79 0  185 80 0  185 79 0  186 80 0  186 79 0  187 80 0  187 79 0  188 80 0  188 79 0  189 80 0  189 79 0  190 80 0  190 79 0  191 80 0  191 79 0  192 80 0  192 79 0  193 80 0  193 79 0  194 80 0  194 79 0  195 80 0  195 79 0  196 80 0  196 79 0  197 80 0  197 79 0  198 80 0  198 79 0  199 80 0  199 79 0  200 80 0  200 79 0  201 80 0  201 79 0  202 80 0  202 79 0  203 80 0  203 79 0  204 80 0  204 79 0  205 80 0  205 79 0  206 80 0  206 79 0  207 80 0  207 79 0  208 80 0  208 79 0  209 80 0  209 79 0  210 80 0  210 79 0  211 80 0  211 79 0  212 80 0  212 79 0  213 80 0  213 79 0  214 80 0  214 79 0  215 80 0  215 79 0  216 80 0  216 79 0  217 80 0  217 79 0  218 80 0  218 79 0  219 80 0  219 79 0  220 80 0  220 79 0  221 80 0  221 79 0  222 80 0  222 79 0  223 80 0  223 79 0  224 80 0  224 79 0  225 80 0  225 79 0  226 80 0  226 79 0  91 79 0  91 78 0  92 79 0  92 78 0  93 79 0  93 78 0  94 78 0  95 78 0  96 78 0  97 78 0  98 78 0  99 78 0  100 78 0  101 78 0  102 78 0  103 78 0  104 78 0  105 78 0  106 78 0  107 78 0  108 78 0  109 78 0  110 78 0  111 78 0  112 78 0  113 78 0  114 78 0  115 78 0  116 78 0  117 78 0  118 78 0  119 78 0  120 78 0  121 78 0  122 78 0  123 78 0  124 78 0  125 78 0  126 78 0  127 78 0  128 78 0  129 78 0  130 78 0  131 78 0  132 78 0  133 78 0  134 78 0  135 78 0  136 78 0  137 78 0  138 78 0  139 78 0  140 78 0  141 78 0  142 78 0  143 78 0  144 78 0  145 78 0  146 78 0  147 78 0  148 78 0  149 78 0  150 78 0  151 78 0  152 78 0  153 78 0  154 78 0  155 78 0  156 78 0  157 78 0  158 78 0  159 78 0  160 78 0  161 78 0  162 78 0  163 78 0  164 78 0  165 78 0  166 78 0  167 78 0  168 78 0  169 78 0  170 78 0  171 78 0  172 78 0  173 78 0  174 78 0  175 78 0  176 78 0  177 78 0  178 78 0  179 78 0  180 78 0  181 78 0  182 78 0  183 78 0  184 78 0  185 78 0  186 78 0  187 78 0  188 78 0  189 78 0  190 78 0  191 78 0  192 78 0  193 78 0  194 78 0  195 78 0  196 78 0  197 78 0  198 78 0  199 78 0  200 78 0  201 78 0  202 78 0  203 78 0  204 78 0  205 78 0  206 78 0  207 78 0  208 78 0  209 78 0  210 78 0  211 78 0  212 78 0  213 78 0  214 78 0  215 78 0  216 78 0  217 78 0  218 78 0  219 78 0  220 78 0  221 78 0  222 78 0  223 78 0  224 78 0  225 78 0  226 78 0  227 79 0  227 78 0  228 79 0  228 78 0  229 79 0  229 78 0  88 78 0  88 77 0  89 78 0  89 77 0  90 78 0  90 77 0  91 77 0  92 77 0  93 77 0  94 77 0  95 77 0  96 77 0  97 77 0  98 77 0  99 77 0  100 77 0  101 77 0  102 77 0  103 77 0  104 77 0  105 77 0  106 77 0  107 77 0  108 77 0  109 77 0  110 77 0  111 77 0  112 77 0  113 77 0  114 77 0  115 77 0  116 77 0  117 77 0  118 77 0  119 77 0  120 77 0  121 77 0  122 77 0  123 77 0  124 77 0  125 77 0  126 77 0  127 77 0  128 77 0  129 77 0  130 77 0  131 77 0  132 77 0  133 77 0  134 77 0  135 77 0  136 77 0  137 77 0  138 77 0  139 77 0  140 77 0  141 77 0  142 77 0  143 77 0  144 77 0  145 77 0  146 77 0  147 77 0  148 77 0  149 77 0  150 77 0  151 77 0  152 77 0  153 77 0  154 77 0  155 77 0  156 77 0  157 77 0  158 77 0  159 77 0  160 77 0  161 77 0  162 77 0  163 77 0  164 77 0  165 77 0  166 77 0  167 77 0  168 77 0  169 77 0  170 77 0  171 77 0  172 77 0  173 77 0  174 77 0  175 77 0  176 77 0  177 77 0  178 77 0  179 77 0  180 77 0  181 77 0  182 77 0  183 77 0  184 77 0  185 77 0  186 77 0  187 77 0  188 77 0  189 77 0  190 77 0  191 77 0  192 77 0  193 77 0  194 77 0  195 77 0  196 77 0  197 77 0  198 77 0  199 77 0  200 77 0  201 77 0  202 77 0  203 77 0  204 77 0  205 77 0  206 77 0  207 77 0  208 77 0  209 77 0  210 77 0  211 77 0  212 77 0  213 77 0  214 77 0  215 77 0  216 77 0  217 77 0  218 77 0  219 77 0  220 77 0  221 77 0  222 77 0  223 77 0  224 77 0  225 77 0  226 77 0  227 77 0  228 77 0  229 77 0  230 78 0  230 77 0  231 78 0  231 77 0  232 78 0  232 77 0  84 77 0  84 76 0  85 77 0  85 76 0  86 77 0  86 76 0  87 77 0  87 76 0  88 76 0  89 76 0  90 76 0  91 76 0  92 76 0  93 76 0  94 76 0  95 76 0  96 76 0  97 76 0  98 76 0  99 76 0  100 76 0  101 76 0  102 76 0  103 76 0  104 76 0  105 76 0  106 76 0  107 76 0  108 76 0  109 76 0  110 76 0  111 76 0  112 76 0  113 76 0  114 76 0  115 76 0  116 76 0  117 76 0  118 76 0  119 76 0  120 76 0  121 76 0  122 76 0  123 76 0  124 76 0  125 76 0  126 76 0  127 76 0  128 76 0  129 76 0  130 76 0  131 76 0  132 76 0  133 76 0  134 76 0  135 76 0  136 76 0  137 76 0  138 76 0  139 76 0  140 76 0  141 76 0  142 76 0  143 76 0  144 76 0  145 76 0  146 76 0  147 76 0  148 76 0  149 76 0  150 76 0  151 76 0  152 76 0  153 76 0  154 76 0  155 76 0  156 76 0  157 76 0  158 76 0  159 76 0  160 76 0  161 76 0  162 76 0  163 76 0  164 76 0  165 76 0  166 76 0  167 76 0  168 76 0  169 76 0  170 76 0  171 76 0  172 76 0  173 76 0  174 76 0  175 76 0  176 76 0  177 76 0  178 76 0  179 76 0  180 76 0  181 76 0  182 76 0  183 76 0  184 76 0  185 76 0  186 76 0  187 76 0  188 76 0  189 76 0  190 76 0  191 76 0  192 76 0  193 76 0  194 76 0  195 76 0  196 76 0  197 76 0  198 76 0  199 76 0  200 76 0  201 76 0  202 76 0  203 76 0  204 76 0  205 76 0  206 76 0  207 76 0  208 76 0  209 76 0  210 76 0  211 76 0  212 76 0  213 76 0  214 76 0  215 76 0  216 76 0  217 76 0  218 76 0  219 76 0  220 76 0  221 76 0  222 76 0  223 76 0  224 76 0  225 76 0  226 76 0  227 76 0  228 76 0  229 76 0  230 76 0  231 76 0  232 76 0  233 77 0  233 76 0  234 77 0  234 76 0  235 77 0  235 76 0  236 77 0  236 76 0  80 76 0  80 75 0  81 76 0  81 75 0  82 76 0  82 75 0  83 76 0  83 75 0  84 75 0  85 75 0  86 75 0  87 75 0  88 75 0  89 75 0  90 75 0  91 75 0  92 75 0  93 75 0  94 75 0  95 75 0  96 75 0  97 75 0  98 75 0  99 75 0  100 75 0  101 75 0  102 75 0  103 75 0  104 75 0  105 75 0  106 75 0  107 75 0  108 75 0  109 75 0  110 75 0  111 75 0  112 75 0  113 75 0  114 75 0  115 75 0  116 75 0  117 75 0  118 75 0  119 75 0  120 75 0  121 75 0  122 75 0  123 75 0  124 75 0  125 75 0  126 75 0  127 75 0  128 75 0  129 75 0  130 75 0  131 75 0  132 75 0  133 75 0  134 75 0  135 75 0  136 75 0  137 75 0  138 75 0  139 75 0  140 75 0  141 75 0  142 75 0  143 75 0  144 75 0  145 75 0  146 75 0  147 75 0  148 75 0  149 75 0  150 75 0  151 75 0  152 75 0  153 75 0  154 75 0  155 75 0  156 75 0  157 75 0  158 75 0  159 75 0  160 75 0  161 75 0  162 75 0  163 75 0  164 75 0  165 75 0  166 75 0  167 75 0  168 75 0  169 75 0  170 75 0  171 75 0  172 75 0  173 75 0  174 75 0  175 75 0  176 75 0  177 75 0  178 75 0  179 75 0  180 75 0  181 75 0  182 75 0  183 75 0  184 75 0  185 75 0  186 75 0  187 75 0  188 75 0  189 75 0  190 75 0  191 75 0  192 75 0  193 75 0  194 75 0  195 75 0  196 75 0  197 75 0  198 75 0  199 75 0  200 75 0  201 75 0  202 75 0  203 75 0  204 75 0  205 75 0  206 75 0  207 75 0  208 75 0  209 75 0  210 75 0  211 75 0  212 75 0  213 75 0  214 75 0  215 75 0  216 75 0  217 75 0  218 75 0  219 75 0  220 75 0  221 75 0  222 75 0  223 75 0  224 75 0  225 75 0  226 75 0  227 75 0  228 75 0  229 75 0  230 75 0  231 75 0  232 75 0  233 75 0  234 75 0  235 75 0  236 75 0  237 76 0  237 75 0  238 76 0  238 75 0  239 76 0  239 75 0  240 76 0  240 75 0  75 75 0  75 74 0  76 75 0  76 74 0  77 75 0  77 74 0  78 75 0  78 74 0  79 75 0  79 74 0  80 74 0  81 74 0  82 74 0  83 74 0  84 74 0  85 74 0  86 74 0  87 74 0  88 74 0  89 74 0  90 74 0  91 74 0  92 74 0  93 74 0  94 74 0  95 74 0  96 74 0  97 74 0  98 74 0  99 74 0  100 74 0  101 74 0  102 74 0  103 74 0  104 74 0  105 74 0  106 74 0  107 74 0  108 74 0  109 74 0  110 74 0  111 74 0  112 74 0  113 74 0  114 74 0  115 74 0  116 74 0  117 74 0  118 74 0  119 74 0  120 74 0  121 74 0  122 74 0  123 74 0  124 74 0  125 74 0  126 74 0  127 74 0  128 74 0  129 74 0  130 74 0  131 74 0  132 74 0  133 74 0  134 74 0  135 74 0  136 74 0  137 74 0  138 74 0  139 74 0  140 74 0  141 74 0  142 74 0  143 74 0  144 74 0  145 74 0  146 74 0  147 74 0  148 74 0  149 74 0  150 74 0  151 74 0  152 74 0  153 74 0  154 74 0  155 74 0  156 74 0  157 74 0  158 74 0  159 74 0  160 74 0  161 74 0  162 74 0  163 74 0  164 74 0  165 74 0  166 74 0  1
[...]
<PointData  Scalars="f_32"> 
<DataArray  type="Float64"  Name="f_32"  format="ascii">1.9695787832753155e+01  1.9671523309965611e+01  1.9850111130853413e+01  1.9821626403879154e+01  2.0007327601978531e+01  1.9979803637392127e+01  2.0165502795192712e+01  2.0139726063374262e+01  2.0323105426233624e+01  2.0299327205234817e+01  2.0479343675543344e+01  2.0457592465387972e+01  2.0633837752414316e+01  2.0614018827409176e+01  2.0786467844904681e+01  2.0768418380757605e+01  2.0937303430559233e+01  2.0920827791111698e+01  2.1086558274243327e+01  2.1071454044557711e+01  2.1234549589835421e+01  2.1220627646859349e+01  2.1381654240591519e+01  2.1368752810511985e+01  2.1528265330373785e+01  2.1516258002964520e+01  2.1674750195836214e+01  2.1663546125839204e+01  2.1821423788152558e+01  2.1810963019558120e+01  2.1968541211874189e+01  2.1958789084820257e+01  2.2116302503771298e+01  2.2107245442817419e+01  2.2264860148044868e+01  2.2256503086399523e+01  2.2414324136995791e+01  2.2406689026693385e+01  2.2564750725908990e+01  2.2557868860427831e+01  2.2716140599969165e+01  2.2710041637051688e+01  2.2868456331517091e+01  2.2863159332142853e+01  2.3021651342564805e+01  2.3017161036657633e+01  2.3175698338001418e+01  2.3172007193276009e+01  2.3330608197816723e+01  2.3327702934054262e+01  2.3486434569300005e+01  2.3484304706812072e+01  2.3643267122093135e+01  2.3641914560883514e+01  2.3801184912955485e+01  2.3800618207495496e+01  2.3960234093069278e+01  2.3960456941585324e+01  2.4120443799277687e+01  2.4121448763977142e+01  2.4281858824020230e+01  2.4283630871325130e+01  2.4444564832176628e+01  2.4447093636666786e+01  2.4608690621049693e+01  2.4611987110029247e+01  2.4774393758581162e+01  2.4778509785302209e+01  2.4941747102098606e+01  2.4946754380778852e+01  2.5110699629656757e+01  2.5116655658982662e+01  2.5281127763649458e+01  2.5288051998774208e+01  2.5452925437790228e+01  2.5460795304983048e+01  2.5626085617353752e+01  2.5634853569360459e+01  2.5800743987676981e+01  2.5810371755315771e+01  2.5977167655022495e+01  2.5987670742025802e+01  2.6155713414758903e+01  2.6167221065350873e+01  2.6336523254277818e+01  2.6349244112064532e+01  2.6519400481747290e+01  2.6533569701907204e+01  2.6703850632975712e+01  2.6719691531562034e+01  2.6889179626369774e+01  2.6906881291256660e+01  2.7074590935303387e+01  2.7094295216087197e+01  2.7259268226862638e+01  2.7281061075076448e+01  2.7442449796324730e+01  2.7466355370901930e+01  2.7623488795001471e+01  2.7649460704117541e+01  2.7802015104962059e+01  2.7829973287671237e+01  2.7978000527264356e+01  2.8007876561610143e+01  2.8151728616410065e+01  2.8183496561466107e+01  2.8323743661021712e+01  2.8357433830897911e+01  2.8494838019878099e+01  2.8530537864089176e+01  2.8666118872470499e+01  2.8703961770190205e+01  2.8839203686367870e+01  2.8879330187726673e+01  2.9016651855076070e+01  2.9059073123790817e+01  2.9202952815113303e+01  2.9247029826371612e+01  2.9407541391996666e+01  2.9449515621867775e+01  2.9663820289221821e+01  2.9676142529106095e+01  2.9905802925263423e+01  2.9892980008670026e+01  3.0067855557146206e+01  3.0058723236025642e+01  3.0183641536910386e+01  3.0177587661081930e+01  3.0262523104771279e+01  3.0258386249510405e+01  3.0308649521604572e+01  3.0305499240115907e+01  3.0323941597083120e+01  3.0320970242406755e+01  3.0308970723550473e+01  3.0305416696153010e+01  3.0263175421117886e+01  3.0258310574599459e+01  3.0184637048200006e+01  3.0177882276747759e+01  3.0069198380788315e+01  3.0060667955960341e+01  2.9907514564436710e+01  2.9900584453586042e+01  2.9666471632824823e+01  2.9688346865336467e+01  2.9411285871468607e+01  2.9458311840421846e+01  2.9207154193258070e+01  2.9251370627238202e+01  2.9021186121264254e+01  2.9062653537271579e+01  2.8843978585237185e+01  2.8883177860032855e+01  2.8670995337818848e+01  2.8708185352278036e+01  2.8499625499927049e+01  2.8534945952472661e+01  2.8328213422065282e+01  2.8361737755598305e+01  2.8155642586178406e+01  2.8187393761319260e+01  2.7981152104341867e+01  2.8011106274889066e+01  2.7804270658883617e+01  2.7832363078117435e+01  2.7624810728594102e+01  2.7650950767000751e+01  2.7442885436741847e+01  2.7466982770543755e+01  2.7258932857560218e+01  2.7280939745341584e+01  2.7073628760422409e+01  2.7093560044997080e+01  2.6887762427286241e+01  2.6905694579007299e+01  2.6702139488151843e+01  2.6718203619649159e+01  2.6517508550507941e+01  2.6531881658789597e+01  2.6334496507845504e+01  2.6347388327664468e+01  2.6153547615272586e+01  2.6165179638401629e+01  2.5974872295623697e+01  2.5985447617904903e+01  2.5798409780127287e+01  2.5808071153995087e+01  2.5623865500689853e+01  2.5632660395385905e+01  2.5450921039489835e+01  2.5458827805821823e+01  2.5279391180157798e+01  2.5286369114474596e+01  2.5109258726597826e+01  2.5115287620451792e+01  2.4940624177509211e+01  2.4945721570245922e+01  2.4773621745803172e+01  2.4777839428774556e+01  2.4608337860345486e+01  2.4611743846436013e+01  2.4444750261609425e+01  2.4447401673104082e+01  2.4282717401154517e+01  2.4284636494953709e+01  2.4122058388319548e+01  2.4123236618020311e+01  2.3962630570663247e+01  2.3963048067543795e+01  2.3804356972121742e+01  2.3803999958389440e+01  2.3647209978515171e+01  2.3646077929825125e+01  2.3491175354941785e+01  2.3489277712267029e+01  2.3336217302932880e+01  2.3333562957255307e+01  2.3182265744859745e+01  2.3178852475946194e+01  2.3029245585253747e+01  2.3025061281477424e+01  2.2877111988147266e+01  2.2872144289964456e+01  2.2725864310831902e+01  2.2720110482246053e+01  2.2575535066784578e+01  2.2569006750464034e+01  2.2426162623092143e+01  2.2418884003333645e+01  2.2277758611783149e+01  2.2269759003695224e+01  2.2130278906451807e+01  2.2121581769706577e+01  2.1983607502807022e+01  2.1974219321166103e+01  2.1837562909170753e+01  2.1827467428643406e+01  2.1691913078289968e+01  2.1681070127376952e+01  2.1546385525701833e+01  2.1534730844882301e+01  2.1400670486654914e+01  2.1388114315978179e+01  2.1254422755550557e+01  2.1240847432597530e+01  2.1107270627026217e+01  2.1092529744878760e+01  2.0958841698722765e+01  2.0942766040240659e+01  2.0808803097017435e+01  2.0791217176780989e+01  2.0656908191334860e+01  2.0637660288465462e+01  2.0503045013839923e+01  2.0482055011796565e+01  2.0347296566458031e+01  2.0324629558819733e+01  2.0190062314253378e+01  2.0166032134140476e+01  2.0032422828031930e+01  2.0007654449138347e+01  1.9877613508068812e+01  1.9852342347698595e+01  1.9741349877989027e+01  1.9705257645006071e+01  1.9205998296551417e+01  1.9183140766404765e+01  1.9359030710168543e+01  1.9332642166999186e+01  1.9516095620640066e+01  1.9492025643703176e+01  1.9652116549664743e+01  1.9802873073368961e+01  1.9960053308569723e+01  2.0120059673576918e+01  2.0280382652205109e+01  2.0439706667705206e+01  2.0597324070222822e+01  2.0752919412818027e+01  2.0906460051970491e+01  2.1058125421102325e+01  2.1208246831391673e+01  2.1357245201841213e+01  2.1505572877245157e+01  2.1653651434255369e+01  2.1801837665687380e+01  2.1950419652940862e+01  2.2099627948278311e+01  2.2249646916585380e+01  2.2400622476455339e+01  2.2552625853979045e+01  2.2705644853608462e+01  2.2859611464852080e+01  2.3014446161147042e+01  2.3170099619754918e+01  2.3326579720076953e+01  2.3483957905351836e+01  2.3642367749317714e+01  2.3801900159488717e+01  2.3962574333377241e+01  2.4124379423588984e+01  2.4287337095133228e+01  2.4451547884114774e+01  2.4617201009535741e+01  2.4784580689016067e+01  2.4953798046967425e+01  2.5124740923041198e+01  2.5297173364071337e+01  2.5470879301134417e+01  2.5645790814512232e+01  2.5822068037160324e+01  2.6000109331364811e+01  2.6180592429123919e+01  2.6363804852831066e+01  2.6549548530575155e+01  2.6737268353608638e+01  2.6926194484326654e+01  2.7115448273547649e+01  2.7304119827618663e+01  2.7491337791163520e+01  2.7676293794707576e+01  2.7858576388492839e+01  2.8038226966983459e+01  2.8215645810046460e+01  2.8391492713801600e+01  2.8566641341976723e+01  2.8742203305862784e+01  2.8919620804839436e+01  2.9100807399552675e+01  2.9288247566173666e+01  2.9484658306671378e+01  2.9690090660286625e+01  2.9883522963115738e+01  3.0041512784136675e+01  3.0160588538106289e+01  3.0242720509982927e+01  3.0290846246990945e+01  3.0306712497201996e+01  3.0290954143032778e+01  3.0243259790788940e+01  3.0162429840161636e+01  3.0046428102761098e+01  2.9892852003932639e+01  2.9701956726295546e+01  2.9495017408899518e+01  2.9295282413019589e+01  2.9105719164419742e+01  2.8923944156578941e+01  2.8746556090029880e+01  2.8571106187201700e+01  2.8395898797411288e+01  2.8219719252664561e+01  2.8041686690366490e+01  2.7861210727713758e+01  2.7678011886067129e+01  2.7492167967186941e+01  2.7304204425840581e+01  2.7114920724056656e+01  2.6925211602986739e+01  2.6735974971014301e+01  2.6548048525859741e+01  2.6362139166443121e+01  2.6178740727213739e+01  2.5998052122694112e+01  2.5819881954069654e+01  2.5643680797843739e+01  2.5468966067194028e+01  2.5295528550826269e+01  2.5123420609259462e+01  2.4952845806699013e+01  2.4784028292850873e+01  2.4617099703300354e+01  2.4452009267735363e+01  2.4288513372222351e+01  2.4126351039824403e+01  2.3965359915166157e+01  2.3805489260260899e+01  2.3646752983986019e+01  2.3489166484993603e+01  2.3332690792951677e+01  2.3177217129780736e+01  2.3022636322396082e+01  2.2868897955554566e+01  2.2716022930618276e+01  2.2564078659868642e+01  2.2413136162851718e+01  2.2263224769827755e+01  2.2114293561242427e+01  2.1966193605046573e+01  2.1818701946794089e+01  2.1671549435296498e+01  2.1524431705369594e+01  2.1377006576583341e+01  2.1228890320358449e+01  2.1079666855264598e+01  2.0928929570889338e+01  2.0776346708232751e+01  2.0621736916607542e+01  2.0465147366119641e+01  2.0306940263673649e+01  2.0147904755781973e+01  1.9989399853273056e+01  1.9833397269809165e+01  1.9681324467784798e+01  1.9542911689389989e+01  1.9524059307653538e+01  1.9387941115648971e+01  1.9366477128769542e+01  1.9255162919976133e+01  1.9219819543922231e+01  1.8714712469748001e+01  1.8693533690269145e+01  1.8867512122412439e+01  1.8841794285605619e+01  1.9025431029268169e+01  1.9001959632911014e+01  1.9164053772129073e+01  1.9314716626854601e+01  1.9472454059086278e+01  1.9631943710247988e+01  1.9787438392993664e+01  1.9945269384967670e+01  2.0105277825586558e+01  2.0265875219475660e+01  2.0425743815145232e+01  2.0584054421878154e+01  2.0740386193880642e+01  2.0894644643698594e+01  2.1046988553319267e+01  2.1197759417926555e+01  2.1347402948469519e+01  2.1496400431121131e+01  2.1645183710909333e+01  2.1794101775674275e+01  2.1943430934637988e+01  2.2093398985463807e+01  2.2244202087034317e+01  2.2396017808410754e+01  2.2548922234333190e+01  2.2702875432508499e+01  2.2857767390843101e+01  2.3013482513312340e+01  2.3169955379809043e+01  2.3327204371598352e+01  2.3485337346568663e+01  2.3644564091692558e+01  2.3804984298707321e+01  2.3966563649918143e+01  2.4129222731402027e+01  2.4292941721970987e+01  2.4457832907288321e+01  2.4624160303775184e+01  2.4792401887431229e+01  2.4962701887998819e+01  2.5134850449805040e+01  2.5308463766831814e+01  2.5483186542339411e+01  2.5658865224812402e+01  2.5835666081815962e+01  2.6014113684436079e+01  2.6195320909366721e+01  2.6379644823044639e+01  2.6566781570354525e+01  2.6756066783557500e+01  2.6946668026254521e+01  2.7137676543184909e+01  2.7328152757040268e+01  2.7517169103517048e+01  2.7703737395748842e+01  2.7887454828858221e+01  2.8068482705909982e+01  2.8247338301191565e+01  2.8424737797588840e+01  2.8601522122956048e+01  2.8778643688574302e+01  2.8957178193037052e+01  2.9138298012274404e+01  2.9323057289597411e+01  2.9511578657562911e+01  2.9700444291264102e+01  2.9875861397280929e+01  3.0023573343174327e+01  3.0138725605827620e+01  3.0220127926811934e+01  3.0268444906262271e+01  3.0284604619686210e+01  3.0269087739948059e+01  3.0221834178165537e+01  3.0142345776590300e+01  3.0030003383746887e+01  2.9884976823640280e+01  2.9710904645720674e+01  2.9521706827312375e+01  2.9331528031665993e+01  2.9144913880747239e+01  2.8962690305785305e+01  2.8783740556974784e+01  2.8606504499998366e+01  2.8429598803559248e+01  2.8251877670858033e+01  2.8072411486575433e+01  2.7890505966827892e+01  2.7705770294054261e+01  2.7518209350414637e+01  2.7328440485467677e+01  2.7137356466449049e+01  2.6945888298320508e+01  2.6754959726136949e+01  2.6565462577496021e+01  2.6378189962716160e+01  2.6193726502165603e+01  2.6012316652722600e+01  2.5833651609317148e+01  2.5656863091191145e+01  2.5481313594692782e+01  2.5306819115565510e+01  2.5133546408513833e+01  2.4961830738606427e+01  2.4792003327804508e+01  2.4624250948534527e+01  2.4458482540254433e+01  2.4294309915139642e+01  2.4131382481665678e+01  2.3969537397178968e+01  2.3808776189910098e+01  2.3649174570470407e+01  2.3490787828446173e+01  2.3333567596913934e+01  2.3177341444492320e+01  2.3021949490668892e+01  2.2867331848009187e+01  2.2713533461632448e+01  2.2560661156016060e+01  2.2408824636523931e+01  2.2258079389298324e+01  2.2108377052380334e+01  2.1959544945407657e+01  2.1811338754203387e+01  2.1663485601767299e+01  2.1515690965405085e+01  2.1367623558461947e+01  2.1218898854416459e+01  2.1069080798562055e+01  2.0917737467751813e+01  2.0764526029292202e+01  2.0609283227120827e+01  2.0452104895915387e+01  2.0293410929938339e+01  2.0133991777764749e+01  1.9974997643666949e+01  1.9817698684790148e+01  1.9662403349675653e+01  1.9505370320460599e+01  1.9348758641934438e+01  1.9196195819553189e+01  1.9054401437501770e+01  1.9037272404726746e+01  1.8898946134846852e+01  1.8879034091578021e+01  1.8769072268103972e+01  1.8734006569679266e+01  1.8070195275423167e+01  1.8047949763708925e+01  1.8221696601834577e+01  1.8193455170200174e+01  1.8378280300453607e+01  1.8351292174592785e+01  1.8536711631888924e+01  1.8513345800430564e+01  1.8675298532779426e+01  1.8824304549709019e+01  1.8982054139638596e+01  1.9142475753172214e+01  1.9298083286209991e+01  1.9456033288731987e+01  1.9615408649023760e+01  1.9773737751968042e+01  1.9933351101523836e+01  2.0094093713666300e+01  2.0255148615263732e+01  2.0415468042561560e+01  2.0574233648520650e+01  2.0730985295609113e+01  2.0885607646283866e+01  2.1038272300783706e+01  2.1189363917409992e+01  2.1339380441906954e+01  2.1488854244440770e+01  2.1638222114075347e+01  2.1787801230745337e+01  2.1937831349411827e+01  2.2088525057464324e+01  2.2240095683376534e+01  2.2392786327207425e+01  2.2546679870864327e+01  2.2701681742927928e+01  2.2857602897164199e+01  2.3014259790316633e+01  2.3171555264994282e+01  2.3329526336191812e+01  2.3488352087206980e+01  2.3648409320881978e+01  2.3809809761592934e+01  2.3972409319941846e+01  2.4135989489176936e+01  2.4300437636636225e+01  2.4465870451955627e+01  2.4632679800334213e+01  2.4801752576104349e+01  2.4973277600938751e+01  2.5146871852938357e+01  2.5321903291412003e+01  2.5497765272408465e+01  2.5674119206193449e+01  2.5851096236619785e+01  2.6029408709288852e+01  2.6211065564974540e+01  2.6396431395892119e+01  2.6584951058667304e+01  2.6775765493374990e+01  2.6967962725284881e+01  2.7160625639963751e+01  2.7352805071121612e+01  2.7543500891129398e+01  2.7731344648068262e+01  2.7915985650891290e+01  2.8097807744843234e+01  2.8277504765163584e+01  2.8455848984717214e+01  2.8633597727538056e+01  2.8811458797571898e+01  2.8990051684584980e+01  2.9169791439294439e+01  2.9350568311461668e+01  2.9530975213018237e+01  2.9706671154079196e+01  2.9868137763467949e+01  3.0005982927669262e+01  3.0115479347298258e+01  3.0194309515823701e+01  3.0241769816674960e+01  3.0257912005932862e+01  3.0242937055847811e+01  3.0196958784140733e+01  3.0120071631791518e+01  3.0012708992834391e+01  2.9876476648183655e+01  2.9715838647355834e+01  2.9540365167633301e+01  2.9359385276885774e+01  2.9177466813176601e+01  2.8996710349873304e+01  2.8817514137777287e+01  2.8639377398992593e+01  2.8461456119164172e+01  2.8282810280971063e+01  2.8102500849511607e+01  2.7919694253365730e+01  2.7733818487477322e+01  2.7544748472490593e+01  2.7353315350607833e+01  2.7160567139063495e+01  2.6967446752489863e+01  2.6774870561371216e+01  2.6583794279150858e+01  2.6395166717627095e+01  2.6209769280493436e+01  2.6027980384611833e+01  2.5849293129522120e+01  2.5672215325039708e+01  2.5495881726730104e+01  2.5320198949954065e+01  2.5145550590464477e+01  2.4972503052524754e+01  2.4801574543099594e+01  2.4633050999754978e+01  2.4466756992060724e+01  2.4302011858220283e+01  2.4138318613591547e+01  2.3975539967969379e+01  2.3813787836188570e+01  2.3653255093882535e+01  2.3494069291005978e+01  2.3336157297531805e+01  2.3179214983844314e+01  2.3022991889031800e+01  2.2867419268167215e+01  2.2712590405891234e+01  2.2558683216318627e+01  2.2405874746660608e+01  2.2254265480609849e+01  2.2103809053401015e+01  2.1954286528582610e+01  2.1805422370685577e+01  2.1656951573209387e+01  2.1508612588137076e+01  2.1360105531822462e+01  2.1211049493044147e+01  2.1060966210909665e+01  2.0909361229675842e+01  2.0755838951494056e+01  2.0600212331417541e+01  2.0442580237132674e+01  2.0283366409775628e+01  2.0123312867576171e+01  1.9963389357258478e+01  1.9804508093565914e+01  1.9646820979464628e+01  1.9488878178495650e+01  1.9331684914993225e+01  1.9176203407720880e+01  1.9018370262412134e+01  1.8861525747059456e+01  1.8709647440592732e+01  1.8568401847532147e+01  1.8550206415571942e+01  1.8410156309965839e+01  1.8388263573283215e+01  1.8256778349519024e+01  1.8233498891923773e+01  1.8128104136084040e+01  1.8091617504618281e+01  1.7444650180875211e+01  1.7423315090917423e+01  1.7591917003010789e+01  1.7563442646710882e+01  1.7743784080596036e+01  1.7716191885149613e+01  1.7897086518524972e+01  1.7873001435987359e+01  1.8029623652663691e+01  1.8175059255605277e+01  1.8330559460210303e+01  1.8491182356229281e+01  1.8651969579894999e+01  1.8806597542772263e+01  1.8964083003906225e+01  1.9123549737116448e+01  1.9281765908168335e+01  1.9441288239907710e+01  1.9601671116327918e+01  1.9762150930606094e+01  1.9923602057845802e+01  2.0085669458123075e+01  2.0247622170459131e+01  2.0408571675666167e+01  2.0567758313021542e+01  2.0724738594936280e+01  2.0879427999403717e+01  2.1032062495791916e+01  2.1183126461221249e+01  2.1333218509281306e+01  2.1482966739602595e+01  2.1632802886759904e+01  2.1782971397753137e+01  2.1933636832599802e+01  2.2084981060711932e+01  2.2237250820667217e+01  2.2390832544671646e+01  2.2545820832599926e+01  2.2702024163907986e+01  2.2859117503489546e+01  2.3016796482211351e+01  2.3174899673255048e+01  2.3333486917165846e+01  2.3492861284600220e+01  2.3653753061902034e+01  2.3816282572927069e+01  2.3980102499191062e+01  2.4144737823160092e+01  2.4309883415037820e+01  2.4475623562512201e+01  2.4642543341850207e+01  2.4812369751835558e+01  2.4985297109574084e+01  2.5160654946461719e+01  2.5337464071726437e+01  2.5514727810044803e+01  2.5691732758377576e+01  2.5868436805999966e+01  2.6045779340513004e+01  2.6227622908982422e+01  2.6414048044989947e+01  2.6603979608443257e+01  2.6796249140115243e+01  2.6989863147519191e+01  2.7183967312193204e+01  2.7377678701074590e+01  2.7569929083074911e+01  2.7758541432307958e+01  2.7943365566251117e+01  2.8125192624222624e+01  2.8304974251914086e+01  2.8483539231747532e+01  2.8661520610713570e+01  2.8839334205160441e+01  2.9017130512746679e+01  2.9194660123036130e+01  2.9370976303451815e+01  2.9543875659789837e+01  2.9709044034258458e+01  2.9859544140797887e+01  2.9988691836508217e+01  3.0092254699694610e+01  3.0167622563906985e+01  3.0213456333725368e+01  3.0229244573343117e+01  3.0214927405347957e+01  3.0170701884575411e+01  3.0097057611559983e+01  2.9995067147408200e+01  2.9866980768460916e+01  2.9717121473815713e+01  2.9552422487872416e+01  2.9379551596732384e+01  2.9202721331055205e+01  2.9024514344847695e+01  2.8846195545660063e+01  2.8668107361290957e+01  2.8490006332184048e+01  2.8311263637554298e+01  2.8130965018527252e+01  2.7948059063699727e+01  2.7761645280814431e+01  2.7571341086366953e+01  2.7378463588854292e+01  2.7184310811794145e+01  2.6989769141896197e+01  2.6795655672709970e