<?xml version="1.0"?>
<VTKFile type="UnstructuredGrid"  version="0.1"  >
<UnstructuredGrid>
<Piece  NumberOfPoints="12162" NumberOfCells="22044">
<Points>
<DataArray  type="Float64"  NumberOfComponents="3"  format="ascii">94 80 0  94 79 0  95 80 0  95 79 0  96 80 0  96 79 0  97 80 0  97 79 0  98 80 0  98 79 0  99 80 0  99 79 0  100 80 0  100 79 0  101 80 0  101 79 0  102 80 0  102 79 0  103 80 0  103 79 0  104 80 0  104 79 0  105 80 0  105 79 0  106 80 0  106 79 0  107 80 0  107 79 0  108 80 0  108 79 0  109 80 0  109 79 0  110 80 0  110 79 0  111 80 0  111 79 0  112 80 0  112 79 0  113 80 0  113 79 0  114 80 0  114 79 0  115 80 0  115 79 0  116 80 0  116 79 0  117 80 0  117 79 0  118 80 0  118 79 0  119 80 0  119 79 0  120 80 0  120 79 0  121 80 0  121 79 0  122 80 0  122 79 0  123 80 0  123 79 0  124 80 0  124 79 0  125 80 0  125 79 0  126 80 0  126 79 0  127 80 0  127 79 0  128 80 0  128 79 0  129 80 0  129 79 0  130 80 0  130 79 0  131 80 0  131 79 0  132 80 0  132 79 0  133 80 0  133 79 0  134 80 0  134 79 0  135 80 0  135 79 0  136 80 0  136 79 0  137 80 0  137 79 0  138 80 0  138 79 0  139 80 0  139 79 0  140 80 0  140 79 0  141 80 0  141 79 0  142 80 0  142 79 0  143 80 0  143 79 0  144 80 0  144 79 0  145 80 0  145 79 0  146 80 0  146 79 0  147 80 0  147 79 0  148 80 0  148 79 0  149 80 0  149 79 0  150 80 0  150 79 0  151 80 0  151 79 0  152 80 0  152 79 0  153 80 0  153 79 0  154 80 0  154 79 0  155 80 0  155 79 0  156 80 0  156 79 0  157 80 0  157 79 0  158 80 0  158 79 0  159 80 0  159 79 0  160 80 0  160 79 0  161 80 0  161 79 0  162 80 0  162 79 0  163 80 0  163 79 0  164 80 0  164 79 0  165 80 0  165 79 0  166 80 0  166 79 0  167 80 0  167 79 0  168 80 0  168 79 0  169 80 0  169 79 0  170 80 0  170 79 0  171 80 0  171 79 0  172 80 0  172 79 0  173 80 0  173 79 0  174 80 0  174 79 0  175 80 0  175 79 0  176 80 0  176 79 0  177 80 0  177 79 0  178 80 0  178 79 0  179 80 0  179 79 0  180 80 0  180 79 0  181 80 0  181 79 0  182 80 0  182 79 0  183 80 0  183 79 0  184 80 0  184 79 0  185 80 0  185 79 0  186 80 0  186 79 0  187 80 0  187 79 0  188 80 0  188 79 0  189 80 0  189 79 0  190 80 0  190 79 0  191 80 0  191 79 0  192 80 0  192 79 0  193 80 0  193 79 0  194 80 0  194 79 0  195 80 0  195 79 0  196 80 0  196 79 0  197 80 0  197 79 0  198 80 0  198 79 0  199 80 0  199 79 0  200 80 0  200 79 0  201 80 0  201 79 0  202 80 0  202 79 0  203 80 0  203 79 0  204 80 0  204 79 0  205 80 0  205 79 0  206 80 0  206 79 0  207 80 0  207 79 0  208 80 0  208 79 0  209 80 0  209 79 0  210 80 0  210 79 0  211 80 0  211 79 0  212 80 0  212 79 0  213 80 0  213 79 0  214 80 0  214 79 0  215 80 0  215 79 0  216 80 0  216 79 0  217 80 0  217 79 0  218 80 0  218 79 0  219 80 0  219 79 0  220 80 0  220 79 0  221 80 0  221 79 0  222 80 0  222 79 0  223 80 0  223 79 0  224 80 0  224 79 0  225 80 0  225 79 0  226 80 0  226 79 0  91 79 0  91 78 0  92 79 0  92 78 0  93 79 0  93 78 0  94 78 0  95 78 0  96 78 0  97 78 0  98 78 0  99 78 0  100 78 0  101 78 0  102 78 0  103 78 0  104 78 0  105 78 0  106 78 0  107 78 0  108 78 0  109 78 0  110 78 0  111 78 0  112 78 0  113 78 0  114 78 0  115 78 0  116 78 0  117 78 0  118 78 0  119 78 0  120 78 0  121 78 0  122 78 0  123 78 0  124 78 0  125 78 0  126 78 0  127 78 0  128 78 0  129 78 0  130 78 0  131 78 0  132 78 0  133 78 0  134 78 0  135 78 0  136 78 0  137 78 0  138 78 0  139 78 0  140 78 0  141 78 0  142 78 0  143 78 0  144 78 0  145 78 0  146 78 0  147 78 0  148 78 0  149 78 0  150 78 0  151 78 0  152 78 0  153 78 0  154 78 0  155 78 0  156 78 0  157 78 0  158 78 0  159 78 0  160 78 0  161 78 0  162 78 0  163 78 0  164 78 0  165 78 0  166 78 0  167 78 0  168 78 0  169 78 0  170 78 0  171 78 0  172 78 0  173 78 0  174 78 0  175 78 0  176 78 0  177 78 0  178 78 0  179 78 0  180 78 0  181 78 0  182 78 0  183 78 0  184 78 0  185 78 0  186 78 0  187 78 0  188 78 0  189 78 0  190 78 0  191 78 0  192 78 0  193 78 0  194 78 0  195 78 0  196 78 0  197 78 0  198 78 0  199 78 0  200 78 0  201 78 0  202 78 0  203 78 0  204 78 0  205 78 0  206 78 0  207 78 0  208 78 0  209 78 0  210 78 0  211 78 0  212 78 0  213 78 0  214 78 0  215 78 0  216 78 0  217 78 0  218 78 0  219 78 0  220 78 0  221 78 0  222 78 0  223 78 0  224 78 0  225 78 0  226 78 0  227 79 0  227 78 0  228 79 0  228 78 0  229 79 0  229 78 0  88 78 0  88 77 0  89 78 0  89 77 0  90 78 0  90 77 0  91 77 0  92 77 0  93 77 0  94 77 0  95 77 0  96 77 0  97 77 0  98 77 0  99 77 0  100 77 0  101 77 0  102 77 0  103 77 0  104 77 0  105 77 0  106 77 0  107 77 0  108 77 0  109 77 0  110 77 0  111 77 0  112 77 0  113 77 0  114 77 0  115 77 0  116 77 0  117 77 0  118 77 0  119 77 0  120 77 0  121 77 0  122 77 0  123 77 0  124 77 0  125 77 0  126 77 0  127 77 0  128 77 0  129 77 0  130 77 0  131 77 0  132 77 0  133 77 0  134 77 0  135 77 0  136 77 0  137 77 0  138 77 0  139 77 0  140 77 0  141 77 0  142 77 0  143 77 0  144 77 0  145 77 0  146 77 0  147 77 0  148 77 0  149 77 0  150 77 0  151 77 0  152 77 0  153 77 0  154 77 0  155 77 0  156 77 0  157 77 0  158 77 0  159 77 0  160 77 0  161 77 0  162 77 0  163 77 0  164 77 0  165 77 0  166 77 0  167 77 0  168 77 0  169 77 0  170 77 0  171 77 0  172 77 0  173 77 0  174 77 0  175 77 0  176 77 0  177 77 0  178 77 0  179 77 0  180 77 0  181 77 0  182 77 0  183 77 0  184 77 0  185 77 0  186 77 0  187 77 0  188 77 0  189 77 0  190 77 0  191 77 0  192 77 0  193 77 0  194 77 0  195 77 0  196 77 0  197 77 0  198 77 0  199 77 0  200 77 0  201 77 0  202 77 0  203 77 0  204 77 0  205 77 0  206 77 0  207 77 0  208 77 0  209 77 0  210 77 0  211 77 0  212 77 0  213 77 0  214 77 0  215 77 0  216 77 0  217 77 0  218 77 0  219 77 0  220 77 0  221 77 0  222 77 0  223 77 0  224 77 0  225 77 0  226 77 0  227 77 0  228 77 0  229 77 0  230 78 0  230 77 0  231 78 0  231 77 0  232 78 0  232 77 0  84 77 0  84 76 0  85 77 0  85 76 0  86 77 0  86 76 0  87 77 0  87 76 0  88 76 0  89 76 0  90 76 0  91 76 0  92 76 0  93 76 0  94 76 0  95 76 0  96 76 0  97 76 0  98 76 0  99 76 0  100 76 0  101 76 0  102 76 0  103 76 0  104 76 0  105 76 0  106 76 0  107 76 0  108 76 0  109 76 0  110 76 0  111 76 0  112 76 0  113 76 0  114 76 0  115 76 0  116 76 0  117 76 0  118 76 0  119 76 0  120 76 0  121 76 0  122 76 0  123 76 0  124 76 0  125 76 0  126 76 0  127 76 0  128 76 0  129 76 0  130 76 0  131 76 0  132 76 0  133 76 0  134 76 0  135 76 0  136 76 0  137 76 0  138 76 0  139 76 0  140 76 0  141 76 0  142 76 0  143 76 0  144 76 0  145 76 0  146 76 0  147 76 0  148 76 0  149 76 0  150 76 0  151 76 0  152 76 0  153 76 0  154 76 0  155 76 0  156 76 0  157 76 0  158 76 0  159 76 0  160 76 0  161 76 0  162 76 0  163 76 0  164 76 0  165 76 0  166 76 0  167 76 0  168 76 0  169 76 0  170 76 0  171 76 0  172 76 0  173 76 0  174 76 0  175 76 0  176 76 0  177 76 0  178 76 0  179 76 0  180 76 0  181 76 0  182 76 0  183 76 0  184 76 0  185 76 0  186 76 0  187 76 0  188 76 0  189 76 0  190 76 0  191 76 0  192 76 0  193 76 0  194 76 0  195 76 0  196 76 0  197 76 0  198 76 0  199 76 0  200 76 0  201 76 0  202 76 0  203 76 0  204 76 0  205 76 0  206 76 0  207 76 0  208 76 0  209 76 0  210 76 0  211 76 0  212 76 0  213 76 0  214 76 0  215 76 0  216 76 0  217 76 0  218 76 0  219 76 0  220 76 0  221 76 0  222 76 0  223 76 0  224 76 0  225 76 0  226 76 0  227 76 0  228 76 0  229 76 0  230 76 0  231 76 0  232 76 0  233 77 0  233 76 0  234 77 0  234 76 0  235 77 0  235 76 0  236 77 0  236 76 0  80 76 0  80 75 0  81 76 0  81 75 0  82 76 0  82 75 0  83 76 0  83 75 0  84 75 0  85 75 0  86 75 0  87 75 0  88 75 0  89 75 0  90 75 0  91 75 0  92 75 0  93 75 0  94 75 0  95 75 0  96 75 0  97 75 0  98 75 0  99 75 0  100 75 0  101 75 0  102 75 0  103 75 0  104 75 0  105 75 0  106 75 0  107 75 0  108 75 0  109 75 0  110 75 0  111 75 0  112 75 0  113 75 0  114 75 0  115 75 0  116 75 0  117 75 0  118 75 0  119 75 0  120 75 0  121 75 0  122 75 0  123 75 0  124 75 0  125 75 0  126 75 0  127 75 0  128 75 0  129 75 0  130 75 0  131 75 0  132 75 0  133 75 0  134 75 0  135 75 0  136 75 0  137 75 0  138 75 0  139 75 0  140 75 0  141 75 0  142 75 0  143 75 0  144 75 0  145 75 0  146 75 0  147 75 0  148 75 0  149 75 0  150 75 0  151 75 0  152 75 0  153 75 0  154 75 0  155 75 0  156 75 0  157 75 0  158 75 0  159 75 0  160 75 0  161 75 0  162 75 0  163 75 0  164 75 0  165 75 0  166 75 0  167 75 0  168 75 0  169 75 0  170 75 0  171 75 0  172 75 0  173 75 0  174 75 0  175 75 0  176 75 0  177 75 0  178 75 0  179 75 0  180 75 0  181 75 0  182 75 0  183 75 0  184 75 0  185 75 0  186 75 0  187 75 0  188 75 0  189 75 0  190 75 0  191 75 0  192 75 0  193 75 0  194 75 0  195 75 0  196 75 0  197 75 0  198 75 0  199 75 0  200 75 0  201 75 0  202 75 0  203 75 0  204 75 0  205 75 0  206 75 0  207 75 0  208 75 0  209 75 0  210 75 0  211 75 0  212 75 0  213 75 0  214 75 0  215 75 0  216 75 0  217 75 0  218 75 0  219 75 0  220 75 0  221 75 0  222 75 0  223 75 0  224 75 0  225 75 0  226 75 0  227 75 0  228 75 0  229 75 0  230 75 0  231 75 0  232 75 0  233 75 0  234 75 0  235 75 0  236 75 0  237 76 0  237 75 0  238 76 0  238 75 0  239 76 0  239 75 0  240 76 0  240 75 0  75 75 0  75 74 0  76 75 0  76 74 0  77 75 0  77 74 0  78 75 0  78 74 0  79 75 0  79 74 0  80 74 0  81 74 0  82 74 0  83 74 0  84 74 0  85 74 0  86 74 0  87 74 0  88 74 0  89 74 0  90 74 0  91 74 0  92 74 0  93 74 0  94 74 0  95 74 0  96 74 0  97 74 0  98 74 0  99 74 0  100 74 0  101 74 0  102 74 0  103 74 0  104 74 0  105 74 0  106 74 0  107 74 0  108 74 0  109 74 0  110 74 0  111 74 0  112 74 0  113 74 0  114 74 0  115 74 0  116 74 0  117 74 0  118 74 0  119 74 0  120 74 0  121 74 0  122 74 0  123 74 0  124 74 0  125 74 0  126 74 0  127 74 0  128 74 0  129 74 0  130 74 0  131 74 0  132 74 0  133 74 0  134 74 0  135 74 0  136 74 0  137 74 0  138 74 0  139 74 0  140 74 0  141 74 0  142 74 0  143 74 0  144 74 0  145 74 0  146 74 0  147 74 0  148 74 0  149 74 0  150 74 0  151 74 0  152 74 0  153 74 0  154 74 0  155 74 0  156 74 0  157 74 0  158 74 0  159 74 0  160 74 0  161 74 0  162 74 0  163 74 0  164 74 0  165 74 0  166 74 0  1
[...]
<PointData  Vectors="f_10"> 
<DataArray  type="Float64"  Name="f_10"  NumberOfComponents="3" format="ascii">5.3379411882517420e+00 -1.8958807674593480e+01 0.0000000000000000e+00  5.2077036362906499e+00 -1.8969812745311668e+01 0.0000000000000000e+00  5.3229471879205512e+00 -1.9123268463268218e+01 0.0000000000000000e+00  5.1726096424672594e+00 -1.9134972797333699e+01 0.0000000000000000e+00  5.2959019693720935e+00 -1.9293886899520651e+01 0.0000000000000000e+00  5.1355527608321543e+00 -1.9308701285482062e+01 0.0000000000000000e+00  5.2603442100741686e+00 -1.9467522232788326e+01 0.0000000000000000e+00  5.0948697487439887e+00 -1.9484832034822894e+01 0.0000000000000000e+00  5.2185177158677432e+00 -1.9641899354535227e+01 0.0000000000000000e+00  5.0507096455516693e+00 -1.9661159972500002e+01 0.0000000000000000e+00  5.1720127810534233e+00 -1.9815714111557419e+01 0.0000000000000000e+00  5.0034987837382889e+00 -1.9836494251118459e+01 0.0000000000000000e+00  5.1220206920649316e+00 -1.9988220676780639e+01 0.0000000000000000e+00  4.9537437949801433e+00 -2.0010165501139461e+01 0.0000000000000000e+00  5.0694791917332367e+00 -2.0159028318786319e+01 0.0000000000000000e+00  4.9019565093228472e+00 -2.0181838153801891e+01 0.0000000000000000e+00  5.0151465868209097e+00 -2.0328003358181675e+01 0.0000000000000000e+00  4.8486138705574655e+00 -2.0351425812978029e+01 0.0000000000000000e+00  4.9596329913588013e+00 -2.0495210141684172e+01 0.0000000000000000e+00  4.7941324242473629e+00 -2.0519039427101823e+01 0.0000000000000000e+00  4.9034105888298294e+00 -2.0660862235780044e+01 0.0000000000000000e+00  4.7388514971062321e+00 -2.0684940753741092e+01 0.0000000000000000e+00  4.8468186178932982e+00 -2.0825272373583040e+01 0.0000000000000000e+00  4.6830250824752424e+00 -2.0849490667933992e+01 0.0000000000000000e+00  4.7900719478864708e+00 -2.0988802494922222e+01 0.0000000000000000e+00  4.6268223794372680e+00 -2.1013096092649150e+01 0.0000000000000000e+00  4.7332793784210923e+00 -2.1151813686672661e+01 0.0000000000000000e+00  4.5703388518553085e+00 -2.1176154673165069e+01 0.0000000000000000e+00  4.6764692945089745e+00 -2.1314631132250511e+01 0.0000000000000000e+00  4.5136130962599772e+00 -2.1339017605289648e+01 0.0000000000000000e+00  4.6196147789706927e+00 -2.1477529680308422e+01 0.0000000000000000e+00  4.4566427748903061e+00 -2.1501976918769078e+01 0.0000000000000000e+00  4.5626521931655866e+00 -2.1640734015225522e+01 0.0000000000000000e+00  4.3993958674577049e+00 -2.1665269002134025e+01 0.0000000000000000e+00  4.5054922951608667e+00 -2.1804423614770744e+01 0.0000000000000000e+00  4.3418173905437945e+00 -2.1829082325540082e+01 0.0000000000000000e+00  4.4480262202174261e+00 -2.1968736450998883e+01 0.0000000000000000e+00  4.2838332145419358e+00 -2.1993562758866734e+01 0.0000000000000000e+00  4.3901384587025944e+00 -2.2133754794909848e+01 0.0000000000000000e+00  4.2253618897989442e+00 -2.2158793396462372e+01 0.0000000000000000e+00  4.3317277031859769e+00 -2.2299499458702400e+01 0.0000000000000000e+00  4.1663316322014774e+00 -2.2324786303898932e+01 0.0000000000000000e+00  4.2727255468656011e+00 -2.2465944587937067e+01 0.0000000000000000e+00  4.1066938702561320e+00 -2.2491500333835567e+01 0.0000000000000000e+00  4.2131041652132559e+00 -2.2633046547763556e+01 0.0000000000000000e+00  4.0464277906348780e+00 -2.2658875714789911e+01 0.0000000000000000e+00  4.1528703560393039e+00 -2.2800774777085017e+01 0.0000000000000000e+00  3.9855349204848967e+00 -2.2826870366645146e+01 0.0000000000000000e+00  4.0920488131934638e+00 -2.2969134565478598e+01 0.0000000000000000e+00  3.9240263144537249e+00 -2.2995486123536867e+01 0.0000000000000000e+00  4.0306606961409406e+00 -2.3138175656294759e+01 0.0000000000000000e+00  3.8619071098080116e+00 -2.3164778065550273e+01 0.0000000000000000e+00  3.9687021729448992e+00 -2.3307988790279300e+01 0.0000000000000000e+00  3.7991610075783138e+00 -2.3334850947281797e+01 0.0000000000000000e+00  3.9061472828720967e+00 -2.3478657324091152e+01 0.0000000000000000e+00  3.7357579659288955e+00 -2.3505794659895813e+01 0.0000000000000000e+00  3.8429710188653856e+00 -2.3650230536427042e+01 0.0000000000000000e+00  3.6716739827072198e+00 -2.3677652550834633e+01 0.0000000000000000e+00  3.7791687066169133e+00 -2.3822736819456861e+01 0.0000000000000000e+00  3.6069039475929996e+00 -2.3850441132183157e+01 0.0000000000000000e+00  3.7147554796856426e+00 -2.3996217304830342e+01 0.0000000000000000e+00  3.5414582875984819e+00 -2.4024193997970357e+01 0.0000000000000000e+00  3.6497444432178816e+00 -2.4170754989503248e+01 0.0000000000000000e+00  3.4753441886583252e+00 -2.4198999101645509e+01 0.0000000000000000e+00  3.5841130284815077e+00 -2.4346481832496799e+01 0.0000000000000000e+00  3.4085390673178324e+00 -2.4375008866796168e+01 0.0000000000000000e+00  3.5177652389315530e+00 -2.4523568779144870e+01 0.0000000000000000e+00  3.3409590628395969e+00 -2.4552432391257536e+01 0.0000000000000000e+00  3.4505532462973205e+00 -2.4702106683507633e+01 0.0000000000000000e+00  3.2724844425145290e+00 -2.4731375180407518e+01 0.0000000000000000e+00  3.3823453424327963e+00 -2.4882056876623381e+01 0.0000000000000000e+00  3.2030117697283540e+00 -2.4911779453280488e+01 0.0000000000000000e+00  3.3130857369501112e+00 -2.5063295754336984e+01 0.0000000000000000e+00  3.1324939813749335e+00 -2.5093481943091316e+01 0.0000000000000000e+00  3.2428123231355737e+00 -2.5245704957638051e+01 0.0000000000000000e+00  3.0609509203915741e+00 -2.5276324650111242e+01 0.0000000000000000e+00  3.1716250887302291e+00 -2.5429259191323169e+01 0.0000000000000000e+00  2.9884469238395819e+00 -2.5460261980024214e+01 0.0000000000000000e+00  3.0996142183728708e+00 -2.5614079783980664e+01 0.0000000000000000e+00  2.9150405643879336e+00 -2.5645428264389992e+01 0.0000000000000000e+00  3.0267660967850909e+00 -2.5800433847891430e+01 0.0000000000000000e+00  2.8407187043197917e+00 -2.5832143540583971e+01 0.0000000000000000e+00  2.9528510837660118e+00 -2.5988702597113235e+01 0.0000000000000000e+00  2.7653085584012858e+00 -2.6020894726528805e+01 0.0000000000000000e+00  2.8774457629349266e+00 -2.6179068328474187e+01 0.0000000000000000e+00  2.6885186826610319e+00 -2.6211927116885224e+01 0.0000000000000000e+00  2.8000509967216591e+00 -2.6371374275515848e+01 0.0000000000000000e+00  2.6100232748511840e+00 -2.6405091280320008e+01 0.0000000000000000e+00  2.7202031325568288e+00 -2.6565153649182339e+01 0.0000000000000000e+00  2.5295240048116252e+00 -2.6599893040331782e+01 0.0000000000000000e+00  2.6375408431461751e+00 -2.6759722836232545e+01 0.0000000000000000e+00  2.4467815869742928e+00 -2.6795606300635626e+01 0.0000000000000000e+00  2.5518349922343271e+00 -2.6954278325879166e+01 0.0000000000000000e+00  2.3616283988887332e+00 -2.6991380310642683e+01 0.0000000000000000e+00  2.4629985466724262e+00 -2.7147981366479748e+01 0.0000000000000000e+00  2.2739727534916168e+00 -2.7186328046330917e+01 0.0000000000000000e+00  2.3710869863025037e+00 -2.7340035297184880e+01 0.0000000000000000e+00  2.1837989370556894e+00 -2.7379604983789626e+01 0.0000000000000000e+00  2.2762999046716934e+00 -2.7529748585142926e+01 0.0000000000000000e+00  2.0911721752308479e+00 -2.7570467553445091e+01 0.0000000000000000e+00  2.1789209846199333e+00 -2.7716704621109823e+01 0.0000000000000000e+00  1.9961826457390000e+00 -2.7758486617184008e+01 0.0000000000000000e+00  2.0792186003320472e+00 -2.7900835688111144e+01 0.0000000000000000e+00  1.8988694426334614e+00 -2.7943626364033339e+01 0.0000000000000000e+00  1.9773653189310545e+00 -2.8082397494230371e+01 0.0000000000000000e+00  1.7991633724164502e+00 -2.8126201603021560e+01 0.0000000000000000e+00  1.8733991658341964e+00 -2.8261918207432341e+01 0.0000000000000000e+00  1.6968538125698600e+00 -2.8306808886080937e+01 0.0000000000000000e+00  1.7672166169392676e+00 -2.8440183180107510e+01 0.0000000000000000e+00  1.5915688808646462e+00 -2.8486298821134010e+01 0.0000000000000000e+00  1.6585713708431613e+00 -2.8618298808458604e+01 0.0000000000000000e+00  1.4827562546185855e+00 -2.8665828174015939e+01 0.0000000000000000e+00  1.5470419085899170e+00 -2.8797886858615612e+01 0.0000000000000000e+00  1.3696604250920164e+00 -2.8847024748369357e+01 0.0000000000000000e+00  1.4319105722867671e+00 -2.8981518240800732e+01 0.0000000000000000e+00  1.2513221438009550e+00 -2.9032316168085803e+01 0.0000000000000000e+00  1.3118696356334687e+00 -2.9173707935852743e+01 0.0000000000000000e+00  1.1267270493765738e+00 -2.9225521615521803e+01 0.0000000000000000e+00  1.1846863120227080e+00 -2.9383921747662125e+01 0.0000000000000000e+00  9.9559033214789860e-01 -2.9432887435332589e+01 0.0000000000000000e+00  1.0525975949043616e+00 -2.9645398315749041e+01 0.0000000000000000e+00  8.6145581147869221e-01 -2.9663832186271446e+01 0.0000000000000000e+00  9.0346649034961557e-01 -2.9892389252898532e+01 0.0000000000000000e+00  7.3123601484000555e-01 -2.9884208890477861e+01 0.0000000000000000e+00  7.3314927395117369e-01 -3.0059108833553683e+01 0.0000000000000000e+00  5.9960134838908707e-01 -3.0052889201000006e+01 0.0000000000000000e+00  5.5609322449342335e-01 -3.0178673431066819e+01 0.0000000000000000e+00  4.5924622285213079e-01 -3.0174212833978526e+01 0.0000000000000000e+00  3.7616871749585540e-01 -3.0260310328969855e+01 0.0000000000000000e+00  3.1317080141900977e-01 -3.0256862575583856e+01 0.0000000000000000e+00  1.9493001926927137e-01 -3.0308125128846104e+01 0.0000000000000000e+00  1.6381257501840155e-01 -3.0305134896930486e+01 0.0000000000000000e+00  1.3270677359772302e-02 -3.0324024138887339e+01 0.0000000000000000e+00  1.3031022488288822e-02 -3.0321031239561488e+01 0.0000000000000000e+00  -1.6807546750425331e-01 -3.0308578315593692e+01 0.0000000000000000e+00  -1.3759377886527518e-01 -3.0305157389602321e+01 0.0000000000000000e+00  -3.4831721000106586e-01 -3.0261237875903795e+01 0.0000000000000000e+00  -2.8654634961126280e-01 -3.0256999940880558e+01 0.0000000000000000e+00  -5.2640570884424209e-01 -3.0180112847676234e+01 0.0000000000000000e+00  -4.3225665017032744e-01 -3.0174829870393044e+01 0.0000000000000000e+00  -7.0070306308080199e-01 -3.0061105209241976e+01 0.0000000000000000e+00  -5.7317711208343292e-01 -3.0055248449235101e+01 0.0000000000000000e+00  -8.6863081056687441e-01 -2.9894984118176861e+01 0.0000000000000000e+00  -7.0852548946435323e-01 -2.9892240639721152e+01 0.0000000000000000e+00  -1.0320612938327864e+00 -2.9648617872668243e+01 0.0000000000000000e+00  -8.4136123282568742e-01 -2.9676488902051769e+01 0.0000000000000000e+00  -1.1784789761105574e+00 -2.9387766114714076e+01 0.0000000000000000e+00  -9.7811469307292209e-01 -2.9442146375293632e+01 0.0000000000000000e+00  -1.3033570413939002e+00 -2.9178142258995667e+01 0.0000000000000000e+00  -1.1129712003366832e+00 -2.9230265874821942e+01 0.0000000000000000e+00  -1.4207636053388735e+00 -2.8986465591758559e+01 0.0000000000000000e+00  -1.2381319864507863e+00 -2.9036340642047548e+01 0.0000000000000000e+00  -1.5341955007750603e+00 -2.8803222804483674e+01 0.0000000000000000e+00  -1.3560844990523568e+00 -2.8851395805554670e+01 0.0000000000000000e+00  -1.6448278173740423e+00 -2.8623848851303737e+01 0.0000000000000000e+00  -1.4687102250670354e+00 -2.8670660336806410e+01 0.0000000000000000e+00  -1.7531388238163592e+00 -2.8445726417606039e+01 0.0000000000000000e+00  -1.5772280048849658e+00 -2.8491392549794817e+01 0.0000000000000000e+00  -1.8593532209542409e+00 -2.8267202055168944e+01 0.0000000000000000e+00  -1.6824315585075906e+00 -2.8311862997640318e+01 0.0000000000000000e+00  -1.9635582468762938e+00 -2.8087167020221180e+01 0.0000000000000000e+00  -1.7848313005092848e+00 -2.8130901271987010e+01 0.0000000000000000e+00  -2.0657225706350699e+00 -2.7904875189050802e+01 0.0000000000000000e+00  -1.8847272009148552e+00 -2.7947701647141695e+01 0.0000000000000000e+00  -2.1656983897298523e+00 -2.7719879422720584e+01 0.0000000000000000e+00  -1.9822514428880698e+00 -2.7761760717505940e+01 0.0000000000000000e+00  -2.2632395668466447e+00 -2.7532026999599694e+01 0.0000000000000000e+00  -2.0774073849606367e+00 -2.7572881513922887e+01 0.0000000000000000e+00  -2.3580487300555002e+00 -2.7341474851952604e+01 0.0000000000000000e+00  -2.1701190942685566e+00 -2.7381200629603061e+01 0.0000000000000000e+00  -2.4498629759570090e+00 -2.7148707728887675e+01 0.0000000000000000e+00  -2.2603054819580088e+00 -2.7187224621963100e+01 0.0000000000000000e+00  -2.5385268078605119e+00 -2.6954443520281078e+01 0.0000000000000000e+00  -2.3479309335730236e+00 -2.6991716371228694e+01 0.0000000000000000e+00  -2.6240232926158913e+00 -2.6759503707655977e+01 0.0000000000000000e+00  -2.4330249693790500e+00 -2.6795547181658907e+01 0.0000000000000000e+00  -2.7064779858380743e+00 -2.6564712841378935e+01 0.0000000000000000e+00  -2.5156902615621277e+00 -2.6599591420206764e+01 0.0000000000000000e+00  -2.7861509910429141e+00 -2.6370822999958371e+01 0.0000000000000000e+00  -2.5961070783712916e+00 -2.6404649319220198e+01 0.0000000000000000e+00  -2.8634176585743893e+00 -2.6178448327783570e+01 0.0000000000000000e+00  -2.6745297038924125e+00 -2.6211376449603527e+01 0.0000000000000000e+00  -2.9387305689996412e+00 -2.5988005810326452e+01 0.0000000000000000e+00  -2.7512664705265850e+00 -2.6020215184304877e+01 0.0000000000000000e+00  -3.0125564664891264e+00 -2.5799669452641638e+01 0.0000000000000000e+00  -2.8266377943157521e+00 -2.5831337279788311e+01 0.0000000000000000e+00  -3.0852826693864306e+00 -2.5613343251999218e+01 0.0000000000000000e+00  -2.9009067158086403e+00 -2.5644601592309026e+01 0.0000000000000000e+00  -3.1571196923615625e+00 -2.5428711834235340e+01 0.0000000000000000e+00  -2.9742070692791929e+00 -2.5459607607154382e+01 0.0000000000000000e+00  -3.2280943395181003e+00 -2.5245455705986611e+01 0.0000000000000000e+00  -3.0465529943360989e+00 -2.5275969072698768e+01 0.0000000000000000e+00  -3.2981291729666595e+00 -2.5063402547881743e+01 0.0000000000000000e+00  -3.1179007542731894e+00 -2.5093490813798560e+01 0.0000000000000000e+00  -3.3671411118858878e+00 -2.4882551279449910e+01 0.0000000000000000e+00  -3.1882125302080451e+00 -2.4912186528685556e+01 0.0000000000000000e+00  -3.4351101139462941e+00 -2.4703012235766572e+01 0.0000000000000000e+00  -3.2574965554398947e+00 -2.4732200632903655e+01 0.0000000000000000e+00  -3.5021017362899260e+00 -2.4524918246856984e+01 0.0000000000000000e+00  -3.3258173370344952e+00 -2.4553700678622636e+01 0.0000000000000000e+00  -3.5682474595500779e+00 -2.4348343640757314e+01 0.0000000000000000e+00  -3.3932792150001734e+00 -2.4376781732405448e+01 0.0000000000000000e+00  -3.6336931498580740e+00 -2.4173249019431267e+01 0.0000000000000000e+00  -3.4599887076915210e+00 -2.4201400160276741e+01 0.0000000000000000e+00  -3.6985382892392855e+00 -2.3999479287254459e+01 0.0000000000000000e+00  -3.5260124992862227e+00 -2.4027371844470327e+01 0.0000000000000000e+00  -3.7628134795200445e+00 -2.3826848639584142e+01 0.0000000000000000e+00  -3.5913702857768213e+00 -2.3854482788035767e+01 0.0000000000000000e+00  -3.8265024819700479e+00 -2.3655216760769740e+01 0.0000000000000000e+00  -3.6560558957952844e+00 -2.3682580701857617e+01 0.0000000000000000e+00  -3.8895802587322348e+00 -2.3484511341336379e+01 0.0000000000000000e+00  -3.7200632238286286e+00 -2.3511597216820597e+01 0.0000000000000000e+00  -3.9520404742967168e+00 -2.3314707241308895e+01 0.0000000000000000e+00  -3.7834016231152670e+00 -2.3341518710977770e+01 0.0000000000000000e+00  -4.0139013268601094e+00 -2.3145788749546412e+01 0.0000000000000000e+00  -3.8460961931808004e+00 -2.3172339066784591e+01 0.0000000000000000e+00  -4.0751907267725871e+00 -2.2977716275540295e+01 0.0000000000000000e+00  -3.9081747369772297e+00 -2.3004018838431179e+01 0.0000000000000000e+00  -4.1359225586963975e+00 -2.2810417445363608e+01 0.0000000000000000e+00  -3.9696504634255527e+00 -2.2836475142907190e+01 0.0000000000000000e+00  -4.1960874294051491e+00 -2.2643818716236289e+01 0.0000000000000000e+00  -4.0305189060965629e+00 -2.2669624015583707e+01 0.0000000000000000e+00  -4.2556651120824611e+00 -2.2477879365402099e+01 0.0000000000000000e+00  -4.0907696462322978e+00 -2.2503423014843236e+01 0.0000000000000000e+00  -4.3146478786326607e+00 -2.2312601504467629e+01 0.0000000000000000e+00  -4.1504029576410542e+00 -2.2337882783358133e+01 0.0000000000000000e+00  -4.3730608220687408e+00 -2.2148014740355876e+01 0.0000000000000000e+00  -4.2094424947078810e+00 -2.2173048180111810e+01 0.0000000000000000e+00  -4.4309706379489961e+00 -2.1984146018877659e+01 0.0000000000000000e+00  -4.2679395033683774e+00 -2.2008962612402737e+01 0.0000000000000000e+00  -4.4884805059575177e+00 -2.1820986567108232e+01 0.0000000000000000e+00  -4.3259677307973785e+00 -2.1845629595247441e+01 0.0000000000000000e+00  -4.5457127507622905e+00 -2.1658464979644116e+01 0.0000000000000000e+00  -4.3836103324261018e+00 -2.1682981530863380e+01 0.0000000000000000e+00  -4.6027848311980719e+00 -2.1496435177945411e+01 0.0000000000000000e+00  -4.4409428754376856e+00 -2.1520866120044264e+01 0.0000000000000000e+00  -4.6597891862858978e+00 -2.1334687055784062e+01 0.0000000000000000e+00  -4.4980206789030648e+00 -2.1359060787331483e+01 0.0000000000000000e+00  -4.7167810188534558e+00 -2.1172964634926853e+01 0.0000000000000000e+00  -4.5548715277318550e+00 -2.1197294246247051e+01 0.0000000000000000e+00  -4.7737695324448115e+00 -2.1010978892499384e+01 0.0000000000000000e+00  -4.6114894166963261e+00 -2.1035259529669489e+01 0.0000000000000000e+00  -4.8307062066030371e+00 -2.0848414424993255e+01 0.0000000000000000e+00  -4.6678252722496456e+00 -2.0872618478331628e+01 0.0000000000000000e+00  -4.8874668324045070e+00 -2.0684936589360230e+01 0.0000000000000000e+00  -4.7237735201719842e+00 -2.0709006348772089e+01 0.0000000000000000e+00  -4.9438286507547300e+00 -2.0520207674198755e+01 0.0000000000000000e+00  -4.7791567665730357e+00 -2.0544047153710647e+01 0.0000000000000000e+00  -4.9994490348497109e+00 -2.0353920812928703e+01 0.0000000000000000e+00  -4.8337151933907796e+00 -2.0377391087710510e+01 0.0000000000000000e+00  -5.0538506931016993e+00 -2.0185847981283132e+01 0.0000000000000000e+00  -4.8871060074734514e+00 -2.0208768843883849e+01 0.0000000000000000e+00  -5.1064115699001373e+00 -2.0015894239519053e+01 0.0000000000000000e+00  -4.9389154144762637e+00 -2.0038052888946059e+01 0.0000000000000000e+00  -5.1563490365906990e+00 -1.9844155796319047e+01 0.0000000000000000e+00  -4.9886842128946798e+00 -1.9865321621241549e+01 0.0000000000000000e+00  -5.2026788387783878e+00 -1.9670997581359355e+01 0.0000000000000000e+00  -5.0359500548345721e+00 -1.9690939480284889e+01 0.0000000000000000e+00  -5.2441159046721140e+00 -1.9497210892661951e+01 0.0000000000000000e+00  -5.0803129273758758e+00 -1.9515697895083726e+01 0.0000000000000000e+00  -5.2788443605017870e+00 -1.9324460722689597e+01 0.0000000000000000e+00  -5.1215202844425196e+00 -1.9341128032652609e+01 0.0000000000000000e+00  -5.3038123207015531e+00 -1.9157019589391332e+01 0.0000000000000000e+00  -5.1594624775906999e+00 -1.9170239465933314e+01 0.0000000000000000e+00  -5.3092492252414205e+00 -1.9014044294362851e+01 0.0000000000000000e+00  -5.1934584529122754e+00 -1.9008607389822984e+01 0.0000000000000000e+00  5.3166280344499990e+00 -1.8455604686971949e+01 0.0000000000000000e+00  5.1965864187562243e+00 -1.8466007108882511e+01 0.0000000000000000e+00  5.2981567176471422e+00 -1.8620088276348046e+01 0.0000000000000000e+00  5.1568577118873673e+00 -1.8632332299163341e+01 0.0000000000000000e+00  5.2616213738838047e+00 -1.8793635069169198e+01 0.0000000000000000e+00  5.1154178192028841e+00 -1.8808995781458080e+01 0.0000000000000000e+00  5.0717095826862133e+00 -1.8986581865121579e+01 0.0000000000000000e+00  5.0278578445802120e+00 -1.9154146376429889e+01 0.0000000000000000e+00  4.9831323214502392e+00 -1.9328203089050731e+01 0.0000000000000000e+00  4.9374143941943895e+00 -1.9505033936437783e+01 0.0000000000000000e+00  4.8901239142983881e+00 -1.9682187027708906e+01 0.0000000000000000e+00  4.8410955644342586e+00 -1.9858334743285880e+01 0.0000000000000000e+00  4.7904079382552469e+00